 Entering Gaussian System, Link 0=g09
 Initial command:
 /home/anv/software/gaussian09/g09/l1.exe /scratch/local/2fluorocyclohexanone/2fluorocyclohexanone_2/Gau-9918.inp -scrdir=/scratch/local/2fluorocyclohexanone/2fluorocyclohexanone_2/
 Entering Link 1 = /home/anv/software/gaussian09/g09/l1.exe PID=      9920.
  
 Copyright (c) 1988,1990,1992,1993,1995,1998,2003,2009,2011,
            Gaussian, Inc.  All Rights Reserved.
  
 This is part of the Gaussian(R) 09 program.  It is based on
 the Gaussian(R) 03 system (copyright 2003, Gaussian, Inc.),
 the Gaussian(R) 98 system (copyright 1998, Gaussian, Inc.),
 the Gaussian(R) 94 system (copyright 1995, Gaussian, Inc.),
 the Gaussian 92(TM) system (copyright 1992, Gaussian, Inc.),
 the Gaussian 90(TM) system (copyright 1990, Gaussian, Inc.),
 the Gaussian 88(TM) system (copyright 1988, Gaussian, Inc.),
 the Gaussian 86(TM) system (copyright 1986, Carnegie Mellon
 University), and the Gaussian 82(TM) system (copyright 1983,
 Carnegie Mellon University). Gaussian is a federally registered
 trademark of Gaussian, Inc.
  
 This software contains proprietary and confidential information,
 including trade secrets, belonging to Gaussian, Inc.
  
 This software is provided under written license and may be
 used, copied, transmitted, or stored only in accord with that
 written license.
  
 The following legend is applicable only to US Government
 contracts under FAR:
  
                    RESTRICTED RIGHTS LEGEND
  
 Use, reproduction and disclosure by the US Government is
 subject to restrictions as set forth in subparagraphs (a)
 and (c) of the Commercial Computer Software - Restricted
 Rights clause in FAR 52.227-19.
  
 Gaussian, Inc.
 340 Quinnipiac St., Bldg. 40, Wallingford CT 06492
  
  
 ---------------------------------------------------------------
 Warning -- This program may not be used in any manner that
 competes with the business of Gaussian, Inc. or will provide
 assistance to any competitor of Gaussian, Inc.  The licensee
 of this program is prohibited from giving any competitor of
 Gaussian, Inc. access to this program.  By using this program,
 the user acknowledges that Gaussian, Inc. is engaged in the
 business of creating and licensing software in the field of
 computational chemistry and represents and warrants to the
 licensee that it is not a competitor of Gaussian, Inc. and that
 it will not use this program in any manner prohibited above.
 ---------------------------------------------------------------
  

 Cite this work as:
 Gaussian 09, Revision C.01,
 M. J. Frisch, G. W. Trucks, H. B. Schlegel, G. E. Scuseria, 
 M. A. Robb, J. R. Cheeseman, G. Scalmani, V. Barone, B. Mennucci, 
 G. A. Petersson, H. Nakatsuji, M. Caricato, X. Li, H. P. Hratchian, 
 A. F. Izmaylov, J. Bloino, G. Zheng, J. L. Sonnenberg, M. Hada, 
 M. Ehara, K. Toyota, R. Fukuda, J. Hasegawa, M. Ishida, T. Nakajima, 
 Y. Honda, O. Kitao, H. Nakai, T. Vreven, J. A. Montgomery, Jr., 
 J. E. Peralta, F. Ogliaro, M. Bearpark, J. J. Heyd, E. Brothers, 
 K. N. Kudin, V. N. Staroverov, T. Keith, R. Kobayashi, J. Normand, 
 K. Raghavachari, A. Rendell, J. C. Burant, S. S. Iyengar, J. Tomasi, 
 M. Cossi, N. Rega, J. M. Millam, M. Klene, J. E. Knox, J. B. Cross, 
 V. Bakken, C. Adamo, J. Jaramillo, R. Gomperts, R. E. Stratmann, 
 O. Yazyev, A. J. Austin, R. Cammi, C. Pomelli, J. W. Ochterski, 
 R. L. Martin, K. Morokuma, V. G. Zakrzewski, G. A. Voth, 
 P. Salvador, J. J. Dannenberg, S. Dapprich, A. D. Daniels, 
 O. Farkas, J. B. Foresman, J. V. Ortiz, J. Cioslowski, 
 and D. J. Fox, Gaussian, Inc., Wallingford CT, 2010.
 
 ******************************************
 Gaussian 09:  EM64L-G09RevC.01 23-Sep-2011
                20-Nov-2023 
 ******************************************
 %chk=2fluorocyclohexanone_2
 %mem=8192mb
 %nproc=6
 Will use up to    6 processors via shared memory.
 ---------------------------------------------------
 #N PBE1PBE 6-31G** td=(nstates=25) gfinput pop=full
 ---------------------------------------------------
 1/38=1/1;
 2/12=2,17=6,18=5,40=1/2;
 3/5=1,6=6,7=101,11=2,16=1,24=10,25=1,30=1,74=-13/1,2,8,3;
 4//1;
 5/5=2,38=5/2;
 8/6=1,10=2,108=25/1;
 9/41=25,42=1/14;
 6/7=3/1;
 99/5=1,9=1/99;
 -----------------------------------------------
 2fluorocyclohexanone/2fluorocyclohexanone_2.dat
 -----------------------------------------------
 Charge =  0 Multiplicity = 1
 Symbolic Z-Matrix:
 6                     0.        0.        0. 
 6                     1.5229    0.        0. 
 6                     2.0905    1.4177    0. 
 6                     1.5697    2.2146   -1.1956 
 6                     0.0479    2.265    -1.2143 
 6                    -0.5335    0.8643   -1.1217 
 8                    -1.4521    0.4775   -1.8527 
 9                    -0.3737    3.0381   -0.1658 
 1                    -0.3906    0.3911    0.9457 
 1                    -0.3718   -1.0223   -0.1255 
 1                     1.8882   -0.5324   -0.8871 
 1                     1.891    -0.5453    0.8761 
 1                     1.8186    1.9259    0.9331 
 1                     3.1848    1.3749   -0.0366 
 1                     1.9705    3.2331   -1.1468 
 1                     1.9363    1.7554   -2.1217 
 1                    -0.3028    2.7412   -2.1352 
 
                          Input orientation:                          
 ---------------------------------------------------------------------
 Center     Atomic      Atomic             Coordinates (Angstroms)
 Number     Number       Type             X           Y           Z
 ---------------------------------------------------------------------
      1          6           0        0.000000    0.000000    0.000000
      2          6           0        1.522900    0.000000    0.000000
      3          6           0        2.090500    1.417700    0.000000
      4          6           0        1.569700    2.214600   -1.195600
      5          6           0        0.047900    2.265000   -1.214300
      6          6           0       -0.533500    0.864300   -1.121700
      7          8           0       -1.452100    0.477500   -1.852700
      8          9           0       -0.373700    3.038100   -0.165800
      9          1           0       -0.390600    0.391100    0.945700
     10          1           0       -0.371800   -1.022300   -0.125500
     11          1           0        1.888200   -0.532400   -0.887100
     12          1           0        1.891000   -0.545300    0.876100
     13          1           0        1.818600    1.925900    0.933100
     14          1           0        3.184800    1.374900   -0.036600
     15          1           0        1.970500    3.233100   -1.146800
     16          1           0        1.936300    1.755400   -2.121700
     17          1           0       -0.302800    2.741200   -2.135200
 ---------------------------------------------------------------------
                    Distance matrix (angstroms):
                    1          2          3          4          5
     1  C    0.000000
     2  C    1.522900   0.000000
     3  C    2.525879   1.527103   0.000000
     4  C    2.966120   2.517162   1.528313   0.000000
     5  C    2.570417   2.963170   2.522827   1.522749   0.000000
     6  C    1.513224   2.496799   2.906861   2.500444   1.519395
     7  O    2.401895   3.537107   4.106883   3.546910   2.419238
     8  F    3.065484   3.585336   2.953890   2.348498   1.369227
     9  H    1.095389   2.169975   2.846772   3.428279   2.892989
    10  H    1.095026   2.156556   3.468756   3.923271   3.488262
    11  H    2.153067   1.097197   2.151920   2.782557   3.364403
    12  H    2.154248   1.095628   2.158870   3.465865   3.957850
    13  H    2.808393   2.160371   1.096755   2.162559   2.803871
    14  H    3.469098   2.157221   1.095748   2.157991   3.466900
    15  H    3.956129   3.459542   2.150634   1.095611   2.153640
    16  H    3.366348   2.784590   2.153934   1.096778   2.156182
    17  H    3.487828   3.925103   3.469671   2.160188   1.094447
                    6          7          8          9         10
     6  C    0.000000
     7  O    1.236043   0.000000
     8  F    2.380060   3.250423   0.000000
     9  H    2.125672   2.994209   2.870945   0.000000
    10  H    2.139584   2.529757   4.060600   1.773562   0.000000
    11  H    2.805430   3.620758   4.287766   3.066747   2.434674
    12  H    3.443309   4.434951   4.365224   2.467263   2.520118
    13  H    3.298723   4.533875   2.692722   2.690044   3.822351
    14  H    3.906905   5.060078   3.930121   3.836178   4.289974
    15  H    3.447007   4.450373   2.548658   4.246212   4.963653
    16  H    2.809621   3.631342   3.287395   4.084693   4.126470
    17  H    2.145497   2.554415   1.992916   3.875903   4.267035
                   11         12         13         14         15
    11  H    0.000000
    12  H    1.763249   0.000000
    13  H    3.059610   2.472917   0.000000
    14  H    2.458112   2.488796   1.763639   0.000000
    15  H    3.775342   4.286578   2.461266   2.481930   0.000000
    16  H    2.600111   3.779164   3.061818   2.459914   1.770649
    17  H    4.132153   4.968075   3.818313   4.293513   2.527211
                   16         17
    16  H    0.000000
    17  H    2.446539   0.000000
 Stoichiometry    C6H9FO
 Framework group  C1[X(C6H9FO)]
 Deg. of freedom    45
 Full point group                 C1      NOp   1
 Largest Abelian subgroup         C1      NOp   1
 Largest concise Abelian subgroup C1      NOp   1
                         Standard orientation:                         
 ---------------------------------------------------------------------
 Center     Atomic      Atomic             Coordinates (Angstroms)
 Number     Number       Type             X           Y           Z
 ---------------------------------------------------------------------
      1          6           0       -0.157469   -1.395465    0.582208
      2          6           0        1.256597   -1.353212    0.018421
      3          6           0        1.818114    0.066789    0.000013
      4          6           0        0.911008    1.002577   -0.798236
      5          6           0       -0.507739    1.012794   -0.245226
      6          6           0       -1.047352   -0.403213   -0.134306
      7          8           0       -2.180509   -0.713458   -0.518371
      8          9           0       -0.491993    1.625764    0.979030
      9          1           0       -0.160311   -1.146177    1.648849
     10          1           0       -0.574053   -2.401495    0.466260
     11          1           0        1.254219   -1.751047   -1.004106
     12          1           0        1.909677   -2.001027    0.613587
     13          1           0        1.923669    0.437055    1.026967
     14          1           0        2.819610    0.059682   -0.444529
     15          1           0        1.326013    2.015970   -0.764029
     16          1           0        0.897169    0.682532   -1.847188
     17          1           0       -1.162939    1.598676   -0.897353
 ---------------------------------------------------------------------
 Rotational constants (GHZ):      2.5650527      2.1828109      1.4928210
 Standard basis: 6-31G(d,p) (6D, 7F)
 AO basis set in the form of general basis input (Overlap normalization):
      1 0
 S   6 1.00       0.000000000000
      0.3047524880D+04  0.1834737132D-02
      0.4573695180D+03  0.1403732281D-01
      0.1039486850D+03  0.6884262226D-01
      0.2921015530D+02  0.2321844432D+00
      0.9286662960D+01  0.4679413484D+00
      0.3163926960D+01  0.3623119853D+00
 SP   3 1.00       0.000000000000
      0.7868272350D+01 -0.1193324198D+00  0.6899906659D-01
      0.1881288540D+01 -0.1608541517D+00  0.3164239610D+00
      0.5442492580D+00  0.1143456438D+01  0.7443082909D+00
 SP   1 1.00       0.000000000000
      0.1687144782D+00  0.1000000000D+01  0.1000000000D+01
 D   1 1.00       0.000000000000
      0.8000000000D+00  0.1000000000D+01
 ****
      2 0
 S   6 1.00       0.000000000000
      0.3047524880D+04  0.1834737132D-02
      0.4573695180D+03  0.1403732281D-01
      0.1039486850D+03  0.6884262226D-01
      0.2921015530D+02  0.2321844432D+00
      0.9286662960D+01  0.4679413484D+00
      0.3163926960D+01  0.3623119853D+00
 SP   3 1.00       0.000000000000
      0.7868272350D+01 -0.1193324198D+00  0.6899906659D-01
      0.1881288540D+01 -0.1608541517D+00  0.3164239610D+00
      0.5442492580D+00  0.1143456438D+01  0.7443082909D+00
 SP   1 1.00       0.000000000000
      0.1687144782D+00  0.1000000000D+01  0.1000000000D+01
 D   1 1.00       0.000000000000
      0.8000000000D+00  0.1000000000D+01
 ****
      3 0
 S   6 1.00       0.000000000000
      0.3047524880D+04  0.1834737132D-02
      0.4573695180D+03  0.1403732281D-01
      0.1039486850D+03  0.6884262226D-01
      0.2921015530D+02  0.2321844432D+00
      0.9286662960D+01  0.4679413484D+00
      0.3163926960D+01  0.3623119853D+00
 SP   3 1.00       0.000000000000
      0.7868272350D+01 -0.1193324198D+00  0.6899906659D-01
      0.1881288540D+01 -0.1608541517D+00  0.3164239610D+00
      0.5442492580D+00  0.1143456438D+01  0.7443082909D+00
 SP   1 1.00       0.000000000000
      0.1687144782D+00  0.1000000000D+01  0.1000000000D+01
 D   1 1.00       0.000000000000
      0.8000000000D+00  0.1000000000D+01
 ****
      4 0
 S   6 1.00       0.000000000000
      0.3047524880D+04  0.1834737132D-02
      0.4573695180D+03  0.1403732281D-01
      0.1039486850D+03  0.6884262226D-01
      0.2921015530D+02  0.2321844432D+00
      0.9286662960D+01  0.4679413484D+00
      0.3163926960D+01  0.3623119853D+00
 SP   3 1.00       0.000000000000
      0.7868272350D+01 -0.1193324198D+00  0.6899906659D-01
      0.1881288540D+01 -0.1608541517D+00  0.3164239610D+00
      0.5442492580D+00  0.1143456438D+01  0.7443082909D+00
 SP   1 1.00       0.000000000000
      0.1687144782D+00  0.1000000000D+01  0.1000000000D+01
 D   1 1.00       0.000000000000
      0.8000000000D+00  0.1000000000D+01
 ****
      5 0
 S   6 1.00       0.000000000000
      0.3047524880D+04  0.1834737132D-02
      0.4573695180D+03  0.1403732281D-01
      0.1039486850D+03  0.6884262226D-01
      0.2921015530D+02  0.2321844432D+00
      0.9286662960D+01  0.4679413484D+00
      0.3163926960D+01  0.3623119853D+00
 SP   3 1.00       0.000000000000
      0.7868272350D+01 -0.1193324198D+00  0.6899906659D-01
      0.1881288540D+01 -0.1608541517D+00  0.3164239610D+00
      0.5442492580D+00  0.1143456438D+01  0.7443082909D+00
 SP   1 1.00       0.000000000000
      0.1687144782D+00  0.1000000000D+01  0.1000000000D+01
 D   1 1.00       0.000000000000
      0.8000000000D+00  0.1000000000D+01
 ****
      6 0
 S   6 1.00       0.000000000000
      0.3047524880D+04  0.1834737132D-02
      0.4573695180D+03  0.1403732281D-01
      0.1039486850D+03  0.6884262226D-01
      0.2921015530D+02  0.2321844432D+00
      0.9286662960D+01  0.4679413484D+00
      0.3163926960D+01  0.3623119853D+00
 SP   3 1.00       0.000000000000
      0.7868272350D+01 -0.1193324198D+00  0.6899906659D-01
      0.1881288540D+01 -0.1608541517D+00  0.3164239610D+00
      0.5442492580D+00  0.1143456438D+01  0.7443082909D+00
 SP   1 1.00       0.000000000000
      0.1687144782D+00  0.1000000000D+01  0.1000000000D+01
 D   1 1.00       0.000000000000
      0.8000000000D+00  0.1000000000D+01
 ****
      7 0
 S   6 1.00       0.000000000000
      0.5484671660D+04  0.1831074430D-02
      0.8252349460D+03  0.1395017220D-01
      0.1880469580D+03  0.6844507810D-01
      0.5296450000D+02  0.2327143360D+00
      0.1689757040D+02  0.4701928980D+00
      0.5799635340D+01  0.3585208530D+00
 SP   3 1.00       0.000000000000
      0.1553961625D+02 -0.1107775495D+00  0.7087426823D-01
      0.3599933586D+01 -0.1480262627D+00  0.3397528391D+00
      0.1013761750D+01  0.1130767015D+01  0.7271585773D+00
 SP   1 1.00       0.000000000000
      0.2700058226D+00  0.1000000000D+01  0.1000000000D+01
 D   1 1.00       0.000000000000
      0.8000000000D+00  0.1000000000D+01
 ****
      8 0
 S   6 1.00       0.000000000000
      0.7001713090D+04  0.1819616901D-02
      0.1051366090D+04  0.1391607961D-01
      0.2392856900D+03  0.6840532453D-01
      0.6739744530D+02  0.2331857601D+00
      0.2151995730D+02  0.4712674392D+00
      0.7403101300D+01  0.3566185462D+00
 SP   3 1.00       0.000000000000
      0.2084795280D+02 -0.1085069751D+00  0.7162872424D-01
      0.4808308340D+01 -0.1464516581D+00  0.3459121027D+00
      0.1344069860D+01  0.1128688581D+01  0.7224699564D+00
 SP   1 1.00       0.000000000000
      0.3581513930D+00  0.1000000000D+01  0.1000000000D+01
 D   1 1.00       0.000000000000
      0.8000000000D+00  0.1000000000D+01
 ****
      9 0
 S   3 1.00       0.000000000000
      0.1873113696D+02  0.3349460434D-01
      0.2825394365D+01  0.2347269535D+00
      0.6401216923D+00  0.8137573261D+00
 S   1 1.00       0.000000000000
      0.1612777588D+00  0.1000000000D+01
 P   1 1.00       0.000000000000
      0.1100000000D+01  0.1000000000D+01
 ****
     10 0
 S   3 1.00       0.000000000000
      0.1873113696D+02  0.3349460434D-01
      0.2825394365D+01  0.2347269535D+00
      0.6401216923D+00  0.8137573261D+00
 S   1 1.00       0.000000000000
      0.1612777588D+00  0.1000000000D+01
 P   1 1.00       0.000000000000
      0.1100000000D+01  0.1000000000D+01
 ****
     11 0
 S   3 1.00       0.000000000000
      0.1873113696D+02  0.3349460434D-01
      0.2825394365D+01  0.2347269535D+00
      0.6401216923D+00  0.8137573261D+00
 S   1 1.00       0.000000000000
      0.1612777588D+00  0.1000000000D+01
 P   1 1.00       0.000000000000
      0.1100000000D+01  0.1000000000D+01
 ****
     12 0
 S   3 1.00       0.000000000000
      0.1873113696D+02  0.3349460434D-01
      0.2825394365D+01  0.2347269535D+00
      0.6401216923D+00  0.8137573261D+00
 S   1 1.00       0.000000000000
      0.1612777588D+00  0.1000000000D+01
 P   1 1.00       0.000000000000
      0.1100000000D+01  0.1000000000D+01
 ****
     13 0
 S   3 1.00       0.000000000000
      0.1873113696D+02  0.3349460434D-01
      0.2825394365D+01  0.2347269535D+00
      0.6401216923D+00  0.8137573261D+00
 S   1 1.00       0.000000000000
      0.1612777588D+00  0.1000000000D+01
 P   1 1.00       0.000000000000
      0.1100000000D+01  0.1000000000D+01
 ****
     14 0
 S   3 1.00       0.000000000000
      0.1873113696D+02  0.3349460434D-01
      0.2825394365D+01  0.2347269535D+00
      0.6401216923D+00  0.8137573261D+00
 S   1 1.00       0.000000000000
      0.1612777588D+00  0.1000000000D+01
 P   1 1.00       0.000000000000
      0.1100000000D+01  0.1000000000D+01
 ****
     15 0
 S   3 1.00       0.000000000000
      0.1873113696D+02  0.3349460434D-01
      0.2825394365D+01  0.2347269535D+00
      0.6401216923D+00  0.8137573261D+00
 S   1 1.00       0.000000000000
      0.1612777588D+00  0.1000000000D+01
 P   1 1.00       0.000000000000
      0.1100000000D+01  0.1000000000D+01
 ****
     16 0
 S   3 1.00       0.000000000000
      0.1873113696D+02  0.3349460434D-01
      0.2825394365D+01  0.2347269535D+00
      0.6401216923D+00  0.8137573261D+00
 S   1 1.00       0.000000000000
      0.1612777588D+00  0.1000000000D+01
 P   1 1.00       0.000000000000
      0.1100000000D+01  0.1000000000D+01
 ****
     17 0
 S   3 1.00       0.000000000000
      0.1873113696D+02  0.3349460434D-01
      0.2825394365D+01  0.2347269535D+00
      0.6401216923D+00  0.8137573261D+00
 S   1 1.00       0.000000000000
      0.1612777588D+00  0.1000000000D+01
 P   1 1.00       0.000000000000
      0.1100000000D+01  0.1000000000D+01
 ****

 There are   165 symmetry adapted basis functions of A   symmetry.
 Integral buffers will be    131072 words long.
 Raffenetti 2 integral format.
 Two-electron integral symmetry is turned on.
   165 basis functions,   287 primitive gaussians,   165 cartesian basis functions
    31 alpha electrons       31 beta electrons
       nuclear repulsion energy       395.2932432312 Hartrees.
 NAtoms=   17 NActive=   17 NUniq=   17 SFac= 1.00D+00 NAtFMM=   60 NAOKFM=F Big=F
 One-electron integrals computed using PRISM.
 NBasis=   165 RedAO= T  NBF=   165
 NBsUse=   165 1.00D-06 NBFU=   165
 Harris functional with IExCor= 1009 diagonalized for initial guess.
 ExpMin= 1.61D-01 ExpMax= 7.00D+03 ExpMxC= 1.05D+03 IAcc=1 IRadAn=         1 AccDes= 0.00D+00
 HarFok:  IExCor= 1009 AccDes= 0.00D+00 IRadAn=         1 IDoV= 1
 ScaDFX=  1.000000  1.000000  1.000000  1.000000
 FoFCou: FMM=F IPFlag=           0 FMFlag=      100000 FMFlg1=           0
         NFxFlg=           0 DoJE=T BraDBF=F KetDBF=T FulRan=T
         Omega=  0.000000  0.000000  1.000000  0.000000  0.000000 ICntrl=     500 IOpCl=  0
         NMat0=    1 NMatS0=    1 NMatT0=    0 NMatD0=    1 NMtDS0=    0 NMtDT0=    0
         I1Cent=           4 NGrid=           0.
 Petite list used in FoFCou.
 Initial guess orbital symmetries:
       Occupied  (A) (A) (A) (A) (A) (A) (A) (A) (A) (A) (A) (A)
                 (A) (A) (A) (A) (A) (A) (A) (A) (A) (A) (A) (A)
                 (A) (A) (A) (A) (A) (A) (A)
       Virtual   (A) (A) (A) (A) (A) (A) (A) (A) (A) (A) (A) (A)
                 (A) (A) (A) (A) (A) (A) (A) (A) (A) (A) (A) (A)
                 (A) (A) (A) (A) (A) (A) (A) (A) (A) (A) (A) (A)
                 (A) (A) (A) (A) (A) (A) (A) (A) (A) (A) (A) (A)
                 (A) (A) (A) (A) (A) (A) (A) (A) (A) (A) (A) (A)
                 (A) (A) (A) (A) (A) (A) (A) (A) (A) (A) (A) (A)
                 (A) (A) (A) (A) (A) (A) (A) (A) (A) (A) (A) (A)
                 (A) (A) (A) (A) (A) (A) (A) (A) (A) (A) (A) (A)
                 (A) (A) (A) (A) (A) (A) (A) (A) (A) (A) (A) (A)
                 (A) (A) (A) (A) (A) (A) (A) (A) (A) (A) (A) (A)
                 (A) (A) (A) (A) (A) (A) (A) (A) (A) (A) (A) (A)
                 (A) (A)
 The electronic state of the initial guess is 1-A.
 Requested convergence on RMS density matrix=1.00D-08 within 128 cycles.
 Requested convergence on MAX density matrix=1.00D-06.
 Requested convergence on             energy=1.00D-06.
 No special actions if energy rises.
 Keep R1 ints in memory in canonical form, NReq=96313597.
 Integral accuracy reduced to 1.0D-05 until final iterations.
 Initial convergence to 1.0D-05 achieved.  Increase integral accuracy.
 SCF Done:  E(RPBE1PBE) =  -408.675301299     A.U. after   14 cycles
             Convg  =    0.2694D-08             -V/T =  2.0079
 ExpMin= 1.61D-01 ExpMax= 7.00D+03 ExpMxC= 1.05D+03 IAcc=3 IRadAn=         5 AccDes= 0.00D+00
 HarFok:  IExCor=  205 AccDes= 0.00D+00 IRadAn=         5 IDoV=-2
 ScaDFX=  1.000000  1.000000  1.000000  1.000000
 Range of M.O.s used for correlation:     9   165
 NBasis=   165 NAE=    31 NBE=    31 NFC=     8 NFV=     0
 NROrb=    157 NOA=    23 NOB=    23 NVA=   134 NVB=   134
 Orbital symmetries:
       Occupied  (A) (A) (A) (A) (A) (A) (A) (A) (A) (A) (A) (A)
                 (A) (A) (A) (A) (A) (A) (A) (A) (A) (A) (A) (A)
                 (A) (A) (A) (A) (A) (A) (A)
       Virtual   (A) (A) (A) (A) (A) (A) (A) (A) (A) (A) (A) (A)
                 (A) (A) (A) (A) (A) (A) (A) (A) (A) (A) (A) (A)
                 (A) (A) (A) (A) (A) (A) (A) (A) (A) (A) (A) (A)
                 (A) (A) (A) (A) (A) (A) (A) (A) (A) (A) (A) (A)
                 (A) (A) (A) (A) (A) (A) (A) (A) (A) (A) (A) (A)
                 (A) (A) (A) (A) (A) (A) (A) (A) (A) (A) (A) (A)
                 (A) (A) (A) (A) (A) (A) (A) (A) (A) (A) (A) (A)
                 (A) (A) (A) (A) (A) (A) (A) (A) (A) (A) (A) (A)
                 (A) (A) (A) (A) (A) (A) (A) (A) (A) (A) (A) (A)
                 (A) (A) (A) (A) (A) (A) (A) (A) (A) (A) (A) (A)
                 (A) (A) (A) (A) (A) (A) (A) (A) (A) (A) (A) (A)
                 (A) (A)
   100 initial guesses have been made.
 Convergence on wavefunction:    0.001000000000000
 Iteration     1 Dimension   100 NMult   100
 CISAX will form   100 AO SS matrices at one time.
 New state      5 was old state      7
 New state      6 was old state      8
 New state      7 was old state      6
 New state      8 was old state      9
 New state      9 was old state     11
 New state     11 was old state     12
 New state     12 was old state     16
 New state     13 was old state     14
 New state     14 was old state     15
 New state     15 was old state     13
 New state     16 was old state     18
 New state     18 was old state      5
 New state     20 was old state     21
 New state     21 was old state     20
 New state     22 was old state     23
 New state     23 was old state     22
 New state     24 was old state     25
 New state     25 was old state     24
 Iteration     2 Dimension   150 NMult   150
 New state     11 was old state     12
 New state     12 was old state     11
 New state     16 was old state     18
 New state     17 was old state     16
 New state     18 was old state     17
 Iteration     3 Dimension   200 NMult   200
 Iteration     4 Dimension   246 NMult   246
 Iteration     5 Dimension   262 NMult   262
 Iteration     6 Dimension   264 NMult   264
 Iteration     7 Dimension   266 NMult   266
 ***********************************************************************
 Excited states from <AA,BB:AA,BB> singles matrix:
 ***********************************************************************
 
 Ground to excited state transition densities written to RWF  633
 Ground to excited state transition electric dipole moments (Au):
       state          X           Y           Z        Dip. S.      Osc.
         1        -0.0130     -0.0191      0.0068      0.0006      0.0001
         2         0.2785      0.0285     -0.0199      0.0788      0.0129
         3        -0.1936     -0.0876      0.0650      0.0494      0.0083
         4         0.1572     -0.0936      0.1685      0.0619      0.0112
         5         0.1731     -0.1419      0.0301      0.0510      0.0100
         6        -0.5414     -0.0362     -0.1536      0.3180      0.0629
         7         0.0132      0.1124     -0.0417      0.0145      0.0029
         8         0.3378      0.0129      0.1047      0.1252      0.0266
         9        -0.1428     -0.1237     -0.0757      0.0414      0.0089
        10        -0.3381      0.0317     -0.0455      0.1174      0.0264
        11        -0.3900     -0.1695     -0.2395      0.2382      0.0543
        12         0.1267      0.2722     -0.0189      0.0905      0.0214
        13        -0.0517     -0.1534      0.1397      0.0457      0.0109
        14        -0.1264     -0.1755     -0.0700      0.0517      0.0125
        15         0.0762     -0.2122      0.1340      0.0688      0.0167
        16         0.1365      0.3618     -0.1166      0.1631      0.0396
        17        -0.2907      0.1778     -0.1078      0.1278      0.0317
        18         0.1295      0.0865     -0.0434      0.0261      0.0065
        19         0.1644      0.0891     -0.0509      0.0376      0.0096
        20        -0.0164     -0.1101     -0.1167      0.0260      0.0067
        21         0.0224      0.1122     -0.0366      0.0144      0.0037
        22         0.1870     -0.0028     -0.1093      0.0469      0.0122
        23        -0.0488      0.1300     -0.0726      0.0246      0.0065
        24         0.4817     -0.0859      0.1176      0.2533      0.0682
        25        -0.0316      0.1219      0.0247      0.0165      0.0045
 Ground to excited state transition velocity dipole moments (Au):
       state          X           Y           Z        Dip. S.      Osc.
         1         0.0027      0.0014      0.0018      0.0000      0.0001
         2        -0.0600     -0.0066      0.0093      0.0037      0.0101
         3         0.0476      0.0216     -0.0122      0.0029      0.0076
         4        -0.0432      0.0229     -0.0432      0.0043      0.0104
         5        -0.0533      0.0439     -0.0198      0.0052      0.0117
         6         0.1550      0.0119      0.0334      0.0253      0.0568
         7        -0.0065     -0.0206      0.0167      0.0007      0.0016
         8        -0.0964     -0.0052     -0.0379      0.0108      0.0225
         9         0.0388      0.0419      0.0311      0.0042      0.0087
        10         0.1120     -0.0075      0.0071      0.0127      0.0250
        11         0.1266      0.0523      0.0820      0.0255      0.0497
        12        -0.0442     -0.0948      0.0120      0.0111      0.0208
        13         0.0236      0.0519     -0.0445      0.0052      0.0097
        14         0.0479      0.0645      0.0295      0.0073      0.0135
        15        -0.0284      0.0642     -0.0429      0.0068      0.0124
        16        -0.0428     -0.1222      0.0496      0.0192      0.0352
        17         0.1176     -0.0672      0.0422      0.0201      0.0360
        18        -0.0444     -0.0457      0.0196      0.0044      0.0080
        19        -0.0635     -0.0335      0.0168      0.0054      0.0095
        20         0.0099      0.0418      0.0449      0.0039      0.0067
        21        -0.0105     -0.0366      0.0181      0.0018      0.0030
        22        -0.0743      0.0002      0.0505      0.0081      0.0138
        23         0.0184     -0.0553      0.0221      0.0039      0.0065
        24        -0.1836      0.0399     -0.0517      0.0380      0.0627
        25         0.0149     -0.0440     -0.0139      0.0024      0.0039
 Ground to excited state transition magnetic dipole moments (Au):
       state          X           Y           Z
         1        -0.9446     -0.3373     -0.4018
         2         0.0792     -0.1053     -0.0372
         3         0.0146      0.1788     -0.3565
         4        -0.1422     -0.3020     -0.2557
         5         0.2240     -0.4726     -0.1978
         6         0.0404      0.0639      0.1666
         7        -0.0898      0.2575      0.2273
         8        -0.1846      0.1935     -0.1682
         9         0.1002      0.9480     -0.4404
        10        -0.0624     -0.2920     -0.0274
        11        -0.0624     -0.2676      0.0944
        12        -0.2187     -0.0656     -0.0601
        13         0.3492     -0.3743     -0.2926
        14        -0.2965     -0.1200     -0.4326
        15         0.3258     -0.0874     -0.4625
        16        -0.0708      0.0650      0.4186
        17         0.1268      0.3773      0.4584
        18        -0.0448      0.3869      0.8848
        19         0.5034     -0.2272      0.3174
        20        -0.0884      0.1528     -0.1831
        21         0.4018      0.6088      0.4483
        22        -0.3890      0.9008     -0.4629
        23        -0.1582     -0.0222      0.1030
        24        -0.0316      0.0587     -0.1676
        25        -0.5006      0.1038     -0.2142
 Ground to excited state transition velocity quadrupole moments (Au):
       state          XX          YY          ZZ          XY          XZ          YZ
         1        -0.0303     -0.0277      0.0479      0.0522     -0.0170     -0.0630
         2        -0.0448     -0.0599      0.0293      0.0894      0.0625      0.0339
         3         0.0656      0.0139     -0.0453     -0.0253     -0.0743     -0.0276
         4         0.1269      0.0159     -0.1463      0.0704      0.0602      0.0149
         5        -0.1095      0.0217      0.0291      0.1823     -0.0011      0.1455
         6        -0.5349      0.2336      0.2057     -0.1794     -0.1915     -0.1303
         7        -0.1280      0.1054      0.0521      0.3890     -0.1574      0.0636
         8         0.5808     -0.1793     -0.2385     -0.0366      0.2324      0.2195
         9        -0.0022      0.1333     -0.1386     -0.0053     -0.2412     -0.1130
        10        -0.2763      0.2387     -0.1242     -0.3008     -0.0629      0.0451
        11        -0.9144      0.2382      0.1987     -0.3802     -0.1202     -0.0503
        12         0.0401     -0.1732      0.0867     -0.3541      0.1047      0.0546
        13         0.0207      0.0736     -0.0178      0.2590      0.0718      0.0253
        14        -0.3207     -0.0575      0.0675     -0.1970     -0.0144     -0.0630
        15         0.1890     -0.1468      0.0021     -0.1695      0.0657      0.0716
        16         0.1572     -0.0618      0.1145     -0.1792      0.2095     -0.0518
        17         0.5268     -0.3336     -0.0579      0.3436     -0.4003      0.2675
        18        -0.4030      0.3031      0.1243     -0.1340      0.1227     -0.1748
        19        -0.5207      0.6568     -0.2145      0.6292     -0.0358     -0.0727
        20         0.7512      0.1924     -0.7844      0.0518     -0.0257     -0.4739
        21         0.0265      0.0251     -0.1437      0.1108     -0.1166     -0.0405
        22        -0.0302     -0.3231      0.0529     -0.1092     -0.3029      0.0345
        23         0.2074      0.2994      0.0513     -0.1510      0.1014     -0.1940
        24         0.1867     -0.5295     -0.1133      0.3190     -0.0179      0.1396
        25         0.3838      0.0910      0.0955      0.1625     -0.0197     -0.1091
 <0|del|b> * <b|rxdel|0> + <0|del|b> * <b|delr+rdel|0>
 Rotatory Strengths (R) in cgs (10**-40 erg-esu-cm/Gauss)
       state          XX          YY          ZZ    R(velocity)
         1        -2.6797     -8.8062     -7.1501     -6.2120
         2         2.2945    -11.4794     -3.5064     -4.2305
         3        14.1406      4.7714      5.9680      8.2933
         4        -0.3530     25.4315      1.6248      8.9011
         5       -24.5717    -14.6672    -30.1081    -23.1157
         6         3.1049     -2.8394     29.7306      9.9987
         7         2.0490     -2.9541     -1.2398     -0.7150
         8         8.8392      1.8018     40.7289     17.1233
         9        39.2883    -15.3270     41.3954     21.7856
        10        -0.6494      0.0097     -9.8115     -3.4837
        11       -32.2246     25.5060    -22.5905     -9.7697
        12        11.1265     10.7129      8.3285     10.0559
        13       -21.3225     32.8814     -7.9315      1.2091
        14       -24.8059    -23.6019    -19.3929    -22.6002
        15        16.7645      1.2569     -8.3441      3.2258
        16        28.6343     33.8319    -31.7476     10.2395
        17       -17.5106     48.6288    -14.2389      5.6264
        18         2.4873     28.1682    -27.5741      1.0271
        19        20.6921    -30.1860    -25.7287    -11.7409
        20         1.4326    -14.7007      8.3313     -1.6456
        21       -14.9162      2.0867    -20.5870    -11.1388
        22       -25.9010      7.6482     28.5780      3.4417
        23         5.1534     -0.7754     -3.3183      0.3532
        24        -4.1772      4.6686     28.9409      9.8108
        25        -4.1060     -3.3291     -8.2883     -5.2411
 1/2[<0|r|b>*<b|rxdel|0> + (<0|rxdel|b>*<b|r|0>)*]
 Rotatory Strengths (R) in cgs (10**-40 erg-esu-cm/Gauss)
       state          XX          YY          ZZ     R(length)
         1        -8.6776     -4.5575      1.9419     -3.7644
         2       -15.5895      2.1215     -0.5233     -4.6638
         3         2.0018     11.0764     16.3946      9.8242
         4        15.8083    -19.9917     30.4716      8.7627
         5       -27.4284    -47.4177      4.2112    -23.5450
         6        15.4513      1.6337     18.0961     11.7271
         7         0.8383    -20.4592      6.7028     -4.3061
         8        44.1001     -1.7665     12.4505     18.2614
         9        10.1178     82.9242    -23.5681     23.1579
        10       -14.9220      6.5379     -0.8833     -3.0891
        11       -17.2009    -32.0717     15.9928    -11.0933
        12        19.5883     12.6255     -0.8051     10.4695
        13        12.7782    -40.6155     28.9019      0.3549
        14       -26.4980    -14.8984    -21.4274    -20.9412
        15       -17.5498    -13.1091     43.8368      4.3926
        16         6.8313    -16.6336     34.5088      8.2355
        17        26.0738    -47.4327     34.9547      4.5319
        18         4.1059    -23.6679     27.1290      2.5223
        19       -58.5195     14.3233     11.4346    -10.9205
        20        -1.0231     11.8978    -15.1091     -1.4115
        21        -6.3520    -48.3016     11.5882    -14.3551
        22        51.4322      1.8005    -35.7807      5.8173
        23        -5.4533      2.0443      5.2900      0.6270
        24        10.7665      3.5658     13.9442      9.4255
        25       -11.1998     -8.9548      3.7407     -5.4713
  1/2[<0|del|b>*<b|r|0> + (<0|r|b>*<b|del|0>)*] (Au)
       state          X           Y           Z        Dip. S.   Osc.(frdel)
         1        -0.0000     -0.0000      0.0000      0.0000      0.0000
         2        -0.0167     -0.0002     -0.0002      0.0171      0.0114
         3        -0.0092     -0.0019     -0.0008      0.0119      0.0079
         4        -0.0068     -0.0021     -0.0073      0.0162      0.0108
         5        -0.0092     -0.0062     -0.0006      0.0161      0.0107
         6        -0.0839     -0.0004     -0.0051      0.0895      0.0597
         7        -0.0001     -0.0023     -0.0007      0.0031      0.0021
         8        -0.0326     -0.0001     -0.0040      0.0366      0.0244
         9        -0.0055     -0.0052     -0.0024      0.0131      0.0087
        10        -0.0379     -0.0002     -0.0003      0.0384      0.0256
        11        -0.0494     -0.0089     -0.0196      0.0779      0.0519
        12        -0.0056     -0.0258     -0.0002      0.0316      0.0211
        13        -0.0012     -0.0080     -0.0062      0.0154      0.0103
        14        -0.0060     -0.0113     -0.0021      0.0194      0.0130
        15        -0.0022     -0.0136     -0.0057      0.0215      0.0144
        16        -0.0058     -0.0442     -0.0058      0.0558      0.0372
        17        -0.0342     -0.0120     -0.0045      0.0507      0.0338
        18        -0.0057     -0.0040     -0.0008      0.0106      0.0070
        19        -0.0104     -0.0030     -0.0009      0.0143      0.0095
        20        -0.0002     -0.0046     -0.0052      0.0100      0.0067
        21        -0.0002     -0.0041     -0.0007      0.0050      0.0033
        22        -0.0139     -0.0000     -0.0055      0.0194      0.0129
        23        -0.0009     -0.0072     -0.0016      0.0097      0.0065
        24        -0.0884     -0.0034     -0.0061      0.0979      0.0653
        25        -0.0005     -0.0054     -0.0003      0.0062      0.0041

 Excitation energies and oscillator strengths:
 
 Excited State   1:      Singlet-A      3.8093 eV  325.48 nm  f=0.0001  <S**2>=0.000
      31 -> 32         0.70163
 This state for optimization and/or second-order correction.
 Total Energy, E(TD-HF/TD-KS) =  -408.535311594    
 Copying the excited state density for this state as the 1-particle RhoCI density.
 
 Excited State   2:      Singlet-A      6.6729 eV  185.80 nm  f=0.0129  <S**2>=0.000
      29 -> 32         0.13988
      30 -> 32         0.67787
 
 Excited State   3:      Singlet-A      6.8730 eV  180.39 nm  f=0.0083  <S**2>=0.000
      27 -> 32        -0.10868
      29 -> 32         0.66717
      30 -> 32        -0.13769
 
 Excited State   4:      Singlet-A      7.4113 eV  167.29 nm  f=0.0112  <S**2>=0.000
      27 -> 32         0.16589
      28 -> 32         0.67541
 
 Excited State   5:      Singlet-A      7.9896 eV  155.18 nm  f=0.0100  <S**2>=0.000
      23 -> 32        -0.11220
      26 -> 32         0.67150
      27 -> 32        -0.15233
 
 Excited State   6:      Singlet-A      8.0709 eV  153.62 nm  f=0.0629  <S**2>=0.000
      25 -> 32        -0.37718
      26 -> 32         0.12317
      27 -> 32         0.53586
      28 -> 32        -0.15481
      29 -> 32         0.11835
 
 Excited State   7:      Singlet-A      8.2609 eV  150.08 nm  f=0.0029  <S**2>=0.000
      31 -> 33         0.69622
 
 Excited State   8:      Singlet-A      8.6800 eV  142.84 nm  f=0.0266  <S**2>=0.000
      23 -> 32         0.14934
      24 -> 32         0.50825
      25 -> 32        -0.35162
      27 -> 32        -0.26515
 
 Excited State   9:      Singlet-A      8.8029 eV  140.85 nm  f=0.0089  <S**2>=0.000
      20 -> 32         0.14144
      23 -> 32         0.61799
      25 -> 32         0.22216
      26 -> 32         0.13306
      27 -> 32         0.10293
 
 Excited State  10:      Singlet-A      9.1791 eV  135.07 nm  f=0.0264  <S**2>=0.000
      24 -> 32         0.20513
      25 -> 32         0.18651
      31 -> 34         0.62214
 
 Excited State  11:      Singlet-A      9.2987 eV  133.33 nm  f=0.0543  <S**2>=0.000
      21 -> 32        -0.16070
      23 -> 32        -0.16344
      24 -> 32         0.40386
      25 -> 32         0.35179
      27 -> 32         0.18079
      31 -> 34        -0.30979
 
 Excited State  12:      Singlet-A      9.6751 eV  128.15 nm  f=0.0214  <S**2>=0.000
      31 -> 35         0.68956
 
 Excited State  13:      Singlet-A      9.7628 eV  127.00 nm  f=0.0109  <S**2>=0.000
      21 -> 32        -0.27734
      22 -> 32         0.61870
      23 -> 32         0.10206
 
 Excited State  14:      Singlet-A      9.8495 eV  125.88 nm  f=0.0125  <S**2>=0.000
      21 -> 32         0.42379
      22 -> 32         0.16094
      31 -> 37         0.49478
 
 Excited State  15:      Singlet-A      9.9160 eV  125.03 nm  f=0.0167  <S**2>=0.000
      21 -> 32        -0.11164
      22 -> 32        -0.13248
      30 -> 33         0.11703
      31 -> 36         0.61364
      31 -> 38         0.23165
 
 Excited State  16:      Singlet-A      9.9204 eV  124.98 nm  f=0.0396  <S**2>=0.000
      19 -> 32        -0.10052
      21 -> 32        -0.39962
      22 -> 32        -0.20639
      24 -> 32        -0.12080
      30 -> 33        -0.13106
      31 -> 36        -0.13372
      31 -> 37         0.44449
 
 Excited State  17:      Singlet-A     10.1359 eV  122.32 nm  f=0.0317  <S**2>=0.000
      30 -> 33         0.57439
      31 -> 36        -0.23796
      31 -> 37         0.13982
      31 -> 38         0.26339
 
 Excited State  18:      Singlet-A     10.1479 eV  122.18 nm  f=0.0065  <S**2>=0.000
      30 -> 33        -0.33434
      31 -> 36        -0.15537
      31 -> 38         0.55992
      31 -> 39        -0.11609
 
 Excited State  19:      Singlet-A     10.3895 eV  119.34 nm  f=0.0096  <S**2>=0.000
      29 -> 33         0.68888
 
 Excited State  20:      Singlet-A     10.5306 eV  117.74 nm  f=0.0067  <S**2>=0.000
      28 -> 33         0.68594
 
 Excited State  21:      Singlet-A     10.5933 eV  117.04 nm  f=0.0037  <S**2>=0.000
      20 -> 32         0.17025
      31 -> 38         0.11940
      31 -> 39         0.64427
 
 Excited State  22:      Singlet-A     10.6332 eV  116.60 nm  f=0.0122  <S**2>=0.000
      19 -> 32         0.12711
      20 -> 32         0.63848
      23 -> 32        -0.16302
      31 -> 39        -0.15901
 
 Excited State  23:      Singlet-A     10.7998 eV  114.80 nm  f=0.0065  <S**2>=0.000
      31 -> 40         0.57135
      31 -> 41         0.37465
 
 Excited State  24:      Singlet-A     10.9914 eV  112.80 nm  f=0.0682  <S**2>=0.000
      27 -> 33         0.12783
      30 -> 34        -0.11152
      31 -> 40        -0.36594
      31 -> 41         0.51973
      31 -> 42        -0.12179
 
 Excited State  25:      Singlet-A     11.0553 eV  112.15 nm  f=0.0045  <S**2>=0.000
      18 -> 32        -0.17293
      19 -> 32         0.47508
      20 -> 32        -0.12520
      21 -> 32        -0.11965
      27 -> 33        -0.37515
      30 -> 34         0.12224
 SavETr:  write IOETrn=   770 NScale= 10 NData=  16 NLR=1 LETran=     460.

 **********************************************************************

            Population analysis using the SCF density.

 **********************************************************************

 Orbital symmetries:
       Occupied  (A) (A) (A) (A) (A) (A) (A) (A) (A) (A) (A) (A)
                 (A) (A) (A) (A) (A) (A) (A) (A) (A) (A) (A) (A)
                 (A) (A) (A) (A) (A) (A) (A)
       Virtual   (A) (A) (A) (A) (A) (A) (A) (A) (A) (A) (A) (A)
                 (A) (A) (A) (A) (A) (A) (A) (A) (A) (A) (A) (A)
                 (A) (A) (A) (A) (A) (A) (A) (A) (A) (A) (A) (A)
                 (A) (A) (A) (A) (A) (A) (A) (A) (A) (A) (A) (A)
                 (A) (A) (A) (A) (A) (A) (A) (A) (A) (A) (A) (A)
                 (A) (A) (A) (A) (A) (A) (A) (A) (A) (A) (A) (A)
                 (A) (A) (A) (A) (A) (A) (A) (A) (A) (A) (A) (A)
                 (A) (A) (A) (A) (A) (A) (A) (A) (A) (A) (A) (A)
                 (A) (A) (A) (A) (A) (A) (A) (A) (A) (A) (A) (A)
                 (A) (A) (A) (A) (A) (A) (A) (A) (A) (A) (A) (A)
                 (A) (A) (A) (A) (A) (A) (A) (A) (A) (A) (A) (A)
                 (A) (A)
 The electronic state is 1-A.
 Alpha  occ. eigenvalues --  -24.77610 -19.22537 -10.32831 -10.31590 -10.24584
 Alpha  occ. eigenvalues --  -10.24497 -10.24367 -10.24129  -1.23531  -1.06329
 Alpha  occ. eigenvalues --   -0.86561  -0.78693  -0.75371  -0.65609  -0.62324
 Alpha  occ. eigenvalues --   -0.56905  -0.52761  -0.50749  -0.49183  -0.47582
 Alpha  occ. eigenvalues --   -0.45042  -0.44248  -0.42656  -0.41063  -0.39789
 Alpha  occ. eigenvalues --   -0.37892  -0.36488  -0.34797  -0.34123  -0.33132
 Alpha  occ. eigenvalues --   -0.25758
 Alpha virt. eigenvalues --   -0.03240   0.08852   0.12374   0.13889   0.15221
 Alpha virt. eigenvalues --    0.15444   0.16554   0.17367   0.18021   0.18592
 Alpha virt. eigenvalues --    0.20760   0.21389   0.23548   0.24382   0.27264
 Alpha virt. eigenvalues --    0.27627   0.33381   0.35969   0.52282   0.52717
 Alpha virt. eigenvalues --    0.53792   0.54670   0.56306   0.58695   0.61611
 Alpha virt. eigenvalues --    0.63374   0.65536   0.65966   0.68684   0.71007
 Alpha virt. eigenvalues --    0.72352   0.75233   0.76631   0.81491   0.82267
 Alpha virt. eigenvalues --    0.83930   0.85395   0.87787   0.88795   0.90757
 Alpha virt. eigenvalues --    0.92057   0.93095   0.93907   0.94605   0.97946
 Alpha virt. eigenvalues --    1.04384   1.07284   1.08365   1.12744   1.15557
 Alpha virt. eigenvalues --    1.19568   1.25256   1.31701   1.34378   1.38964
 Alpha virt. eigenvalues --    1.40238   1.42006   1.45010   1.45851   1.57900
 Alpha virt. eigenvalues --    1.61043   1.62348   1.64804   1.66520   1.69700
 Alpha virt. eigenvalues --    1.72974   1.77778   1.78596   1.81090   1.83900
 Alpha virt. eigenvalues --    1.87073   1.87783   1.90552   1.92518   1.94072
 Alpha virt. eigenvalues --    1.97284   1.97789   2.00368   2.01072   2.02906
 Alpha virt. eigenvalues --    2.09986   2.11852   2.15474   2.16293   2.17983
 Alpha virt. eigenvalues --    2.20728   2.22622   2.24402   2.26955   2.28938
 Alpha virt. eigenvalues --    2.31013   2.34143   2.35693   2.39263   2.43004
 Alpha virt. eigenvalues --    2.44584   2.46739   2.50662   2.53149   2.58418
 Alpha virt. eigenvalues --    2.60384   2.63325   2.66667   2.67474   2.73339
 Alpha virt. eigenvalues --    2.74508   2.75900   2.81532   2.85131   2.85874
 Alpha virt. eigenvalues --    2.88401   2.92462   2.94187   2.95870   3.02527
 Alpha virt. eigenvalues --    3.04988   3.13510   3.24500   3.30413   3.33388
 Alpha virt. eigenvalues --    3.34331   3.42369   3.48321   3.49030   3.51521
 Alpha virt. eigenvalues --    3.58214   3.97016   4.27180   4.37521   4.42555
 Alpha virt. eigenvalues --    4.62417   4.74438   4.77021   4.95474
     Molecular Orbital Coefficients:
                           1         2         3         4         5
                           O         O         O         O         O
     Eigenvalues --   -24.77610 -19.22537 -10.32831 -10.31590 -10.24584
   1 1   C  1S          0.00002   0.00001   0.00146  -0.00028   0.00036
   2        2S          0.00006   0.00008  -0.00007  -0.00069   0.00028
   3        2PX        -0.00003   0.00004   0.00002   0.00008   0.00001
   4        2PY         0.00005  -0.00001  -0.00010  -0.00022   0.00001
   5        2PZ        -0.00001   0.00004   0.00002   0.00002   0.00007
   6        3S         -0.00044  -0.00083   0.00471   0.00397  -0.00224
   7        3PX        -0.00008  -0.00032  -0.00046  -0.00033  -0.00047
   8        3PY        -0.00015  -0.00085   0.00293   0.00125  -0.00112
   9        3PZ         0.00028  -0.00011  -0.00037  -0.00104   0.00041
  10        4XX         0.00001  -0.00002  -0.00042  -0.00010   0.00009
  11        4YY         0.00008  -0.00002  -0.00021  -0.00025   0.00002
  12        4ZZ         0.00004  -0.00001  -0.00025  -0.00021  -0.00001
  13        4XY         0.00001   0.00001   0.00012  -0.00002  -0.00003
  14        4XZ        -0.00001  -0.00001  -0.00017   0.00006   0.00004
  15        4YZ         0.00001   0.00001   0.00009  -0.00005   0.00003
  16 2   C  1S         -0.00003   0.00001  -0.00013   0.00012  -0.00253
  17        2S         -0.00013   0.00008  -0.00045   0.00046  -0.00057
  18        2PX         0.00001  -0.00003   0.00021   0.00000  -0.00002
  19        2PY        -0.00000   0.00000   0.00001  -0.00002  -0.00018
  20        2PZ         0.00001  -0.00001   0.00009  -0.00010   0.00011
  21        3S          0.00089  -0.00015   0.00151  -0.00320   0.00213
  22        3PX        -0.00029   0.00014  -0.00104   0.00123  -0.00068
  23        3PY         0.00036  -0.00010   0.00070  -0.00135   0.00103
  24        3PZ        -0.00005   0.00041  -0.00120   0.00045  -0.00049
  25        4XX        -0.00004  -0.00000  -0.00002   0.00009  -0.00011
  26        4YY        -0.00002   0.00000  -0.00009   0.00003  -0.00008
  27        4ZZ        -0.00005   0.00004  -0.00017   0.00009  -0.00014
  28        4XY        -0.00002   0.00001  -0.00003   0.00009  -0.00002
  29        4XZ        -0.00000  -0.00003   0.00002  -0.00001   0.00000
  30        4YZ         0.00001   0.00001  -0.00003  -0.00006  -0.00002
  31 3   C  1S          0.00002  -0.00000   0.00006  -0.00019   0.02625
  32        2S          0.00005  -0.00002   0.00022  -0.00053   0.00099
  33        2PX        -0.00007  -0.00000  -0.00001   0.00024   0.00004
  34        2PY         0.00004  -0.00001   0.00001  -0.00019   0.00002
  35        2PZ         0.00001  -0.00001   0.00003  -0.00001   0.00000
  36        3S         -0.00022   0.00007  -0.00155   0.00199   0.00455
  37        3PX         0.00043  -0.00014   0.00128  -0.00175  -0.00166
  38        3PY         0.00020  -0.00007   0.00038  -0.00014   0.00194
  39        3PZ         0.00003  -0.00011   0.00057   0.00037  -0.00105
  40        4XX         0.00006   0.00001  -0.00001  -0.00012  -0.00044
  41        4YY         0.00004  -0.00001   0.00012  -0.00017  -0.00051
  42        4ZZ         0.00004   0.00002   0.00002  -0.00019  -0.00045
  43        4XY        -0.00001   0.00000  -0.00004  -0.00001   0.00008
  44        4XZ        -0.00002  -0.00000  -0.00005   0.00000  -0.00011
  45        4YZ         0.00001   0.00002  -0.00006  -0.00000   0.00014
  46 4   C  1S          0.00002   0.00001  -0.00012   0.00164   0.99320
  47        2S          0.00020   0.00004  -0.00041  -0.00035   0.04724
  48        2PX         0.00006  -0.00004   0.00023  -0.00013  -0.00013
  49        2PY        -0.00002  -0.00001   0.00011   0.00007  -0.00012
  50        2PZ         0.00001   0.00001   0.00002  -0.00001  -0.00001
  51        3S         -0.00066   0.00019   0.00104   0.00641  -0.02119
  52        3PX         0.00031  -0.00004  -0.00053  -0.00311   0.00085
  53        3PY         0.00004   0.00028  -0.00164  -0.00056   0.00177
  54        3PZ        -0.00044   0.00033  -0.00051   0.00125  -0.00161
  55        4XX        -0.00004   0.00001  -0.00006  -0.00037  -0.00751
  56        4YY         0.00002  -0.00000  -0.00009  -0.00026  -0.00726
  57        4ZZ        -0.00007   0.00005  -0.00019  -0.00019  -0.00726
  58        4XY         0.00001  -0.00002   0.00006   0.00007   0.00015
  59        4XZ         0.00008  -0.00003   0.00002   0.00005  -0.00002
  60        4YZ        -0.00003   0.00002  -0.00006  -0.00001   0.00016
  61 5   C  1S         -0.00007   0.00002   0.01001   0.99371  -0.00194
  62        2S         -0.00016   0.00015   0.00030   0.04720  -0.00032
  63        2PX        -0.00006   0.00005  -0.00007   0.00029   0.00000
  64        2PY         0.00034   0.00000   0.00010   0.00021   0.00000
  65        2PZ         0.00057  -0.00000  -0.00007   0.00115  -0.00003
  66        3S          0.00174  -0.00132   0.00462  -0.02525   0.00518
  67        3PX         0.00047  -0.00080   0.00111  -0.00211   0.00214
  68        3PY        -0.00073   0.00062  -0.00214   0.00440   0.00005
  69        3PZ         0.00026  -0.00070   0.00168  -0.00054  -0.00092
  70        4XX        -0.00005   0.00001  -0.00041  -0.00724  -0.00045
  71        4YY         0.00007  -0.00001  -0.00054  -0.00711  -0.00018
  72        4ZZ         0.00040  -0.00001  -0.00024  -0.00669  -0.00023
  73        4XY         0.00002  -0.00002  -0.00022  -0.00018  -0.00005
  74        4XZ        -0.00000   0.00000  -0.00000   0.00015   0.00014
  75        4YZ         0.00028  -0.00002   0.00003   0.00016   0.00001
  76 6   C  1S          0.00003  -0.00003   0.99341  -0.01032  -0.00003
  77        2S          0.00021   0.00036   0.04612  -0.00091  -0.00037
  78        2PX         0.00003  -0.00007  -0.00052  -0.00000  -0.00008
  79        2PY        -0.00002  -0.00000  -0.00011  -0.00005  -0.00014
  80        2PZ         0.00002  -0.00001  -0.00028   0.00000   0.00003
  81        3S         -0.00094  -0.00183  -0.01151   0.00637   0.00138
  82        3PX        -0.00038   0.00375  -0.00760   0.00192   0.00127
  83        3PY        -0.00080   0.00108  -0.00177   0.00594   0.00015
  84        3PZ        -0.00013   0.00133  -0.00284  -0.00076   0.00032
  85        4XX         0.00003  -0.00076  -0.00681  -0.00014  -0.00004
  86        4YY        -0.00005  -0.00011  -0.00776  -0.00036  -0.00010
  87        4ZZ         0.00003  -0.00017  -0.00783  -0.00014  -0.00017
  88        4XY        -0.00005  -0.00021   0.00037  -0.00003   0.00002
  89        4XZ        -0.00003  -0.00025   0.00048   0.00004  -0.00004
  90        4YZ        -0.00005  -0.00008   0.00009   0.00002  -0.00003
  91 7   O  1S         -0.00000   0.99301   0.00001  -0.00005  -0.00002
  92        2S         -0.00000   0.02492   0.00097  -0.00025  -0.00010
  93        2PX         0.00000   0.00105  -0.00011  -0.00004   0.00003
  94        2PY        -0.00003   0.00030  -0.00003   0.00004   0.00000
  95        2PZ        -0.00000   0.00034  -0.00002  -0.00003  -0.00003
  96        3S         -0.00008   0.01322  -0.00680   0.00114   0.00073
  97        3PX        -0.00001   0.00145  -0.00270   0.00037   0.00005
  98        3PY         0.00018   0.00037  -0.00076  -0.00083   0.00007
  99        3PZ         0.00001   0.00049  -0.00091   0.00037   0.00014
 100        4XX         0.00000  -0.00715  -0.00006  -0.00006  -0.00005
 101        4YY         0.00001  -0.00754   0.00062  -0.00017  -0.00004
 102        4ZZ        -0.00001  -0.00753   0.00070  -0.00018  -0.00006
 103        4XY         0.00002   0.00013  -0.00025  -0.00010  -0.00001
 104        4XZ         0.00000   0.00017  -0.00033   0.00011   0.00001
 105        4YZ         0.00001   0.00004  -0.00004  -0.00006   0.00002
 106 8   F  1S          0.99327  -0.00003  -0.00002  -0.00027  -0.00005
 107        2S          0.01985  -0.00018  -0.00011  -0.00115  -0.00030
 108        2PX        -0.00001  -0.00001   0.00006  -0.00003  -0.00008
 109        2PY        -0.00038   0.00001   0.00009   0.00008   0.00001
 110        2PZ        -0.00070   0.00001   0.00001   0.00000   0.00006
 111        3S          0.01254   0.00075  -0.00023   0.00526   0.00060
 112        3PX        -0.00002   0.00009  -0.00033   0.00027   0.00024
 113        3PY         0.00041  -0.00010  -0.00014  -0.00043  -0.00000
 114        3PZ         0.00067  -0.00014   0.00015   0.00025  -0.00013
 115        4XX        -0.00721  -0.00009  -0.00024  -0.00059  -0.00008
 116        4YY        -0.00733  -0.00014   0.00003  -0.00074  -0.00035
 117        4ZZ        -0.00763  -0.00011  -0.00015  -0.00161  -0.00019
 118        4XY         0.00001  -0.00001   0.00012  -0.00008  -0.00003
 119        4XZ         0.00000  -0.00003   0.00006  -0.00006  -0.00013
 120        4YZ        -0.00026   0.00003   0.00001  -0.00048   0.00008
 121 9   H  1S          0.00005   0.00005  -0.00029  -0.00019   0.00017
 122        2S         -0.00016   0.00019  -0.00006  -0.00011   0.00007
 123        3PX        -0.00001   0.00003  -0.00012   0.00004   0.00003
 124        3PY         0.00003   0.00000   0.00002  -0.00012   0.00004
 125        3PZ         0.00001  -0.00001  -0.00008   0.00001  -0.00002
 126 10  H  1S         -0.00000  -0.00001   0.00004  -0.00009  -0.00000
 127        2S         -0.00008  -0.00035   0.00062   0.00039  -0.00024
 128        3PX         0.00000  -0.00004   0.00004  -0.00000   0.00000
 129        3PY        -0.00003   0.00001   0.00003   0.00008   0.00001
 130        3PZ        -0.00001  -0.00002   0.00001   0.00002  -0.00003
 131 11  H  1S         -0.00005   0.00003  -0.00024   0.00026  -0.00015
 132        2S         -0.00004   0.00024  -0.00052   0.00019  -0.00037
 133        3PX         0.00002  -0.00001   0.00008  -0.00004   0.00003
 134        3PY        -0.00002   0.00001  -0.00004   0.00006  -0.00008
 135        3PZ         0.00001   0.00000   0.00003  -0.00001   0.00004
 136 12  H  1S         -0.00001  -0.00002   0.00008  -0.00001   0.00000
 137        2S          0.00009  -0.00019   0.00081  -0.00037   0.00061
 138        3PX         0.00000   0.00001  -0.00003  -0.00003  -0.00002
 139        3PY        -0.00000  -0.00001   0.00004   0.00002   0.00004
 140        3PZ        -0.00001  -0.00001   0.00000   0.00003  -0.00003
 141 13  H  1S          0.00007  -0.00001   0.00011  -0.00020  -0.00023
 142        2S         -0.00021   0.00010  -0.00041  -0.00024   0.00004
 143        3PX        -0.00002  -0.00000  -0.00004   0.00010  -0.00002
 144        3PY         0.00001   0.00000  -0.00000  -0.00003   0.00002
 145        3PZ         0.00003   0.00000   0.00002  -0.00002  -0.00004
 146 14  H  1S         -0.00004  -0.00000  -0.00000   0.00005  -0.00012
 147        2S         -0.00020   0.00005  -0.00023   0.00090   0.00010
 148        3PX         0.00002   0.00000  -0.00003  -0.00006  -0.00002
 149        3PY        -0.00001   0.00000  -0.00003   0.00003  -0.00002
 150        3PZ        -0.00002   0.00001  -0.00006   0.00003   0.00000
 151 15  H  1S          0.00006  -0.00003   0.00011  -0.00015  -0.00009
 152        2S         -0.00007  -0.00016   0.00082   0.00015   0.00232
 153        3PX        -0.00000   0.00000  -0.00001  -0.00001   0.00011
 154        3PY         0.00002   0.00000  -0.00004  -0.00004   0.00030
 155        3PZ         0.00003  -0.00001   0.00002  -0.00001   0.00011
 156 16  H  1S          0.00002   0.00001  -0.00023  -0.00026  -0.00001
 157        2S         -0.00012   0.00022  -0.00046   0.00004   0.00286
 158        3PX         0.00000  -0.00000   0.00005  -0.00002  -0.00005
 159        3PY        -0.00001  -0.00001   0.00008   0.00005  -0.00022
 160        3PZ         0.00002   0.00000   0.00001   0.00003  -0.00027
 161 17  H  1S         -0.00001  -0.00002   0.00008  -0.00004  -0.00019
 162        2S          0.00008  -0.00041   0.00076   0.00196  -0.00016
 163        3PX        -0.00003  -0.00003   0.00003  -0.00012   0.00002
 164        3PY        -0.00001  -0.00002  -0.00005   0.00005  -0.00002
 165        3PZ        -0.00009  -0.00002   0.00002  -0.00022   0.00001
                           6         7         8         9        10
                           O         O         O         O         O
     Eigenvalues --   -10.24497 -10.24367 -10.24129  -1.23531  -1.06329
   1 1   C  1S          0.09469   0.98906   0.00342  -0.00232  -0.01998
   2        2S          0.00427   0.04747  -0.00021   0.00192   0.03625
   3        2PX        -0.00002   0.00005  -0.00020  -0.00052  -0.01889
   4        2PY        -0.00001   0.00024  -0.00005   0.00173   0.01324
   5        2PZ         0.00005   0.00002  -0.00004  -0.00035  -0.01309
   6        3S          0.00302  -0.02437   0.00154   0.00808   0.00308
   7        3PX         0.00256  -0.00039   0.00043   0.00190  -0.01265
   8        3PY        -0.00012  -0.00238   0.00113   0.00282  -0.01279
   9        3PZ        -0.00073   0.00236   0.00011  -0.00594  -0.00352
  10        4XX        -0.00120  -0.00747  -0.00010  -0.00011   0.00334
  11        4YY        -0.00090  -0.00719  -0.00006  -0.00042   0.00030
  12        4ZZ        -0.00090  -0.00719  -0.00014  -0.00048   0.00074
  13        4XY         0.00007   0.00012   0.00001  -0.00022  -0.00358
  14        4XZ         0.00014  -0.00002  -0.00004   0.00018   0.00331
  15        4YZ         0.00002   0.00015  -0.00003  -0.00021  -0.00218
  16 2   C  1S          0.98848  -0.09482  -0.03332  -0.00041  -0.00442
  17        2S          0.04682  -0.00481  -0.00186   0.00338   0.00919
  18        2PX        -0.00016   0.00003   0.00003  -0.00061  -0.00572
  19        2PY         0.00004  -0.00004  -0.00002   0.00071   0.00152
  20        2PZ        -0.00007   0.00003   0.00001  -0.00010   0.00008
  21        3S         -0.02077   0.00779   0.00632  -0.01386   0.00700
  22        3PX         0.00136  -0.00307   0.00085   0.00477   0.00093
  23        3PY        -0.00198   0.00023   0.00271  -0.00538  -0.00098
  24        3PZ        -0.00009   0.00051  -0.00050   0.00164   0.01042
  25        4XX        -0.00740   0.00028  -0.00002   0.00026   0.00061
  26        4YY        -0.00739   0.00050  -0.00016   0.00013  -0.00011
  27        4ZZ        -0.00713   0.00045   0.00007   0.00036   0.00006
  28        4XY        -0.00014  -0.00003  -0.00015   0.00016   0.00001
  29        4XZ         0.00014   0.00014   0.00001   0.00001  -0.00062
  30        4YZ        -0.00002   0.00004  -0.00000  -0.00008   0.00009
  31 3   C  1S          0.03260  -0.00671   0.99269  -0.00240  -0.00210
  32        2S          0.00127  -0.00063   0.04713   0.00206   0.00426
  33        2PX         0.00007   0.00007  -0.00018  -0.00154  -0.00253
  34        2PY         0.00001   0.00016   0.00003   0.00106  -0.00071
  35        2PZ         0.00000  -0.00010   0.00002   0.00002  -0.00026
  36        3S          0.00442   0.00112  -0.02199   0.00583   0.00116
  37        3PX        -0.00115  -0.00076   0.00283  -0.00784  -0.00013
  38        3PY        -0.00250   0.00011   0.00073  -0.00319  -0.00174
  39        3PZ         0.00050   0.00019   0.00064  -0.00146  -0.00538
  40        4XX        -0.00046   0.00001  -0.00719  -0.00016   0.00049
  41        4YY        -0.00072   0.00001  -0.00744  -0.00021  -0.00002
  42        4ZZ        -0.00041  -0.00005  -0.00714  -0.00052   0.00014
  43        4XY        -0.00007   0.00003  -0.00000  -0.00027   0.00017
  44        4XZ        -0.00002  -0.00001  -0.00013   0.00009   0.00014
  45        4YZ         0.00001  -0.00002   0.00011  -0.00009   0.00011
  46 4   C  1S          0.00142  -0.00029  -0.02658  -0.00910  -0.00352
  47        2S         -0.00039   0.00036  -0.00140   0.01341   0.00764
  48        2PX        -0.00009   0.00008   0.00008  -0.01241  -0.00430
  49        2PY         0.00019  -0.00006   0.00001   0.00230  -0.00299
  50        2PZ        -0.00001  -0.00008  -0.00006   0.00944   0.00082
  51        3S          0.00215  -0.00258   0.00493   0.01538   0.00809
  52        3PX        -0.00037   0.00059   0.00191  -0.00571  -0.00098
  53        3PY        -0.00117   0.00134  -0.00186   0.00136   0.00796
  54        3PZ         0.00036  -0.00065   0.00084   0.00889   0.00733
  55        4XX        -0.00014   0.00010  -0.00015   0.00325   0.00053
  56        4YY        -0.00011   0.00006  -0.00005  -0.00089  -0.00011
  57        4ZZ        -0.00015  -0.00001  -0.00008   0.00122   0.00024
  58        4XY        -0.00000  -0.00005   0.00013  -0.00053  -0.00012
  59        4XZ        -0.00002   0.00005  -0.00007  -0.00315  -0.00044
  60        4YZ        -0.00002   0.00005   0.00011   0.00041  -0.00003
  61 5   C  1S          0.00004  -0.00004  -0.00000  -0.06229  -0.01544
  62        2S          0.00028  -0.00083  -0.00065   0.11717   0.02948
  63        2PX         0.00002  -0.00002  -0.00027   0.00331  -0.01443
  64        2PY         0.00001   0.00021   0.00007   0.04035  -0.02759
  65        2PZ         0.00005  -0.00004  -0.00000   0.08900  -0.00737
  66        3S         -0.00225   0.00538   0.00321   0.01008  -0.00163
  67        3PX        -0.00107   0.00018   0.00167  -0.00500  -0.01900
  68        3PY         0.00081  -0.00212  -0.00105   0.00792   0.00157
  69        3PZ        -0.00057   0.00093   0.00126  -0.00626  -0.01122
  70        4XX         0.00008  -0.00019  -0.00013  -0.00925   0.00176
  71        4YY         0.00003  -0.00015  -0.00014  -0.00350   0.00479
  72        4ZZ        -0.00000  -0.00017  -0.00011   0.01466  -0.00238
  73        4XY         0.00006   0.00008  -0.00001   0.00066   0.00459
  74        4XZ         0.00002  -0.00001  -0.00002   0.00006  -0.00022
  75        4YZ        -0.00006   0.00008   0.00004   0.01356  -0.00086
  76 6   C  1S         -0.00020  -0.00169   0.00004  -0.01077  -0.11781
  77        2S         -0.00041  -0.00017   0.00027   0.01640   0.22276
  78        2PX        -0.00011  -0.00002   0.00005   0.00214  -0.15631
  79        2PY         0.00014   0.00007  -0.00005   0.01392  -0.04258
  80        2PZ        -0.00006  -0.00004  -0.00003   0.00254  -0.05332
  81        3S          0.00198   0.00425  -0.00244   0.01950   0.07566
  82        3PX         0.00139   0.00184  -0.00170   0.00705   0.05433
  83        3PY        -0.00016  -0.00480  -0.00047   0.01498   0.01324
  84        3PZ         0.00052   0.00174  -0.00047   0.00614   0.01718
  85        4XX        -0.00004  -0.00025  -0.00003   0.00023   0.01662
  86        4YY        -0.00013  -0.00033   0.00007   0.00410  -0.01363
  87        4ZZ        -0.00018  -0.00022   0.00007  -0.00107  -0.01257
  88        4XY         0.00000   0.00012  -0.00006   0.00243   0.01022
  89        4XZ        -0.00003  -0.00011  -0.00006   0.00087   0.01322
  90        4YZ        -0.00002   0.00013  -0.00003   0.00124   0.00307
  91 7   O  1S         -0.00002  -0.00002   0.00001  -0.00434  -0.19322
  92        2S         -0.00010  -0.00012   0.00005   0.00886   0.41855
  93        2PX         0.00002  -0.00002  -0.00000   0.00364   0.14014
  94        2PY        -0.00002  -0.00004  -0.00000   0.00232   0.03855
  95        2PZ        -0.00003   0.00000   0.00001   0.00158   0.04709
  96        3S          0.00068   0.00015  -0.00052   0.01130   0.42267
  97        3PX         0.00003  -0.00004   0.00007   0.00228   0.06078
  98        3PY         0.00012   0.00082   0.00003  -0.00194   0.01706
  99        3PZ         0.00012  -0.00017  -0.00004   0.00020   0.02041
 100        4XX        -0.00006  -0.00004   0.00008  -0.00013   0.00920
 101        4YY        -0.00005   0.00003   0.00001  -0.00051  -0.00877
 102        4ZZ        -0.00005  -0.00014   0.00001  -0.00031  -0.00426
 103        4XY         0.00002   0.00013   0.00002   0.00002   0.00560
 104        4XZ         0.00001   0.00004   0.00001   0.00000   0.00527
 105        4YZ        -0.00002  -0.00001   0.00000   0.00012   0.00330
 106 8   F  1S         -0.00001   0.00009   0.00010  -0.22019   0.01373
 107        2S         -0.00012   0.00054   0.00058   0.49292  -0.03193
 108        2PX        -0.00000  -0.00001   0.00003  -0.00016  -0.00211
 109        2PY        -0.00001  -0.00006  -0.00002  -0.04171  -0.00314
 110        2PZ         0.00001  -0.00003  -0.00004  -0.07963   0.00004
 111        3S          0.00061  -0.00213  -0.00227   0.46415  -0.02810
 112        3PX         0.00009   0.00002  -0.00028   0.00070   0.00127
 113        3PY        -0.00013   0.00053   0.00033  -0.02545  -0.00073
 114        3PZ        -0.00017   0.00034   0.00039  -0.04536  -0.00133
 115        4XX        -0.00004   0.00033   0.00035   0.00883  -0.00071
 116        4YY        -0.00003   0.00027   0.00033   0.01376  -0.00128
 117        4ZZ        -0.00002   0.00035   0.00035   0.02450  -0.00101
 118        4XY         0.00000   0.00001   0.00002  -0.00002  -0.00009
 119        4XZ        -0.00003  -0.00000   0.00008   0.00004  -0.00023
 120        4YZ         0.00003  -0.00007  -0.00004   0.00963   0.00019
 121 9   H  1S         -0.00021   0.00007  -0.00013   0.00056   0.00747
 122        2S          0.00034   0.00285  -0.00046   0.00390   0.00265
 123        3PX         0.00004   0.00003  -0.00008   0.00000   0.00043
 124        3PY        -0.00000   0.00021  -0.00006  -0.00012  -0.00015
 125        3PZ        -0.00001   0.00028   0.00002  -0.00025  -0.00076
 126 10  H  1S         -0.00016   0.00005   0.00003   0.00024   0.00866
 127        2S          0.00020   0.00247   0.00060   0.00161  -0.00325
 128        3PX        -0.00001  -0.00011   0.00004  -0.00004  -0.00021
 129        3PY         0.00001  -0.00028   0.00002   0.00027   0.00149
 130        3PZ        -0.00001  -0.00013  -0.00001   0.00018  -0.00033
 131 11  H  1S          0.00002  -0.00029  -0.00026   0.00091   0.00267
 132        2S          0.00294  -0.00037  -0.00018   0.00126   0.00502
 133        3PX        -0.00009  -0.00003   0.00003  -0.00015  -0.00017
 134        3PY        -0.00000  -0.00001   0.00005   0.00020   0.00028
 135        3PZ        -0.00030   0.00008   0.00004  -0.00000   0.00021
 136 12  H  1S         -0.00012  -0.00010  -0.00013   0.00024   0.00059
 137        2S          0.00224  -0.00017  -0.00004  -0.00170  -0.00422
 138        3PX         0.00018  -0.00001  -0.00003  -0.00004  -0.00001
 139        3PY        -0.00015   0.00004   0.00002   0.00004  -0.00008
 140        3PZ         0.00024  -0.00004  -0.00001   0.00007  -0.00023
 141 13  H  1S         -0.00024  -0.00010   0.00007   0.00063   0.00107
 142        2S          0.00007  -0.00029   0.00289   0.00449   0.00335
 143        3PX        -0.00000   0.00006  -0.00012  -0.00007  -0.00010
 144        3PY        -0.00004   0.00004   0.00008   0.00006  -0.00007
 145        3PZ        -0.00003  -0.00003   0.00029  -0.00032  -0.00012
 146 14  H  1S         -0.00011   0.00001  -0.00011   0.00060   0.00029
 147        2S          0.00021   0.00045   0.00215   0.00327  -0.00087
 148        3PX        -0.00003  -0.00003   0.00028  -0.00017   0.00007
 149        3PY         0.00001  -0.00002  -0.00004   0.00015   0.00005
 150        3PZ        -0.00000   0.00002  -0.00022   0.00022   0.00012
 151 15  H  1S         -0.00001  -0.00000  -0.00010   0.00267   0.00005
 152        2S          0.00061  -0.00030  -0.00011   0.00178  -0.00456
 153        3PX        -0.00001  -0.00001  -0.00001  -0.00050   0.00002
 154        3PY        -0.00005   0.00000  -0.00003  -0.00048  -0.00002
 155        3PZ         0.00000   0.00004   0.00001   0.00017  -0.00021
 156 16  H  1S         -0.00014   0.00020  -0.00020   0.00179   0.00251
 157        2S         -0.00037   0.00012  -0.00009   0.00101   0.00460
 158        3PX         0.00001  -0.00002   0.00002   0.00021  -0.00010
 159        3PY         0.00009  -0.00006  -0.00001   0.00010  -0.00019
 160        3PZ        -0.00003   0.00003   0.00008  -0.00001   0.00029
 161 17  H  1S         -0.00003  -0.00006   0.00007   0.01772   0.00708
 162        2S         -0.00029   0.00049   0.00087   0.00064  -0.00415
 163        3PX         0.00001   0.00004   0.00004   0.00224   0.00015
 164        3PY        -0.00001  -0.00004  -0.00004  -0.00140  -0.00114
 165        3PZ        -0.00001   0.00003   0.00002   0.00350   0.00040
                          11        12        13        14        15
                           O         O         O         O         O
     Eigenvalues --    -0.86561  -0.78693  -0.75371  -0.65609  -0.62324
   1 1   C  1S         -0.08455  -0.11640   0.07502  -0.08391   0.01073
   2        2S          0.15511   0.21569  -0.14155   0.16224  -0.02111
   3        2PX         0.03145   0.02926   0.05277  -0.09210  -0.10219
   4        2PY         0.02907  -0.00276  -0.03699  -0.00552   0.10241
   5        2PZ        -0.02433  -0.01402   0.00750   0.02574   0.00631
   6        3S          0.12129   0.20470  -0.13461   0.18508  -0.01849
   7        3PX         0.00591   0.00424   0.00504  -0.02819  -0.02419
   8        3PY         0.00424   0.00486  -0.00507   0.00244   0.03603
   9        3PZ        -0.00338  -0.00633  -0.00085   0.00452   0.00148
  10        4XX         0.00213   0.00262   0.00549  -0.00658  -0.00511
  11        4YY        -0.00102  -0.00417  -0.00262   0.00052   0.00480
  12        4ZZ        -0.00203  -0.00243   0.00081   0.00008   0.00027
  13        4XY        -0.00025  -0.00080   0.00407  -0.00059  -0.00327
  14        4XZ        -0.00261  -0.00224  -0.00280   0.00450   0.00569
  15        4YZ        -0.00239  -0.00010   0.00252   0.00036  -0.00410
  16 2   C  1S         -0.09974  -0.09286  -0.05472   0.09158   0.07974
  17        2S          0.18120   0.17297   0.10258  -0.17625  -0.15396
  18        2PX        -0.02366  -0.04834   0.07342  -0.07904   0.03421
  19        2PY         0.04091  -0.02075   0.04798   0.00535   0.12269
  20        2PZ         0.00612   0.02396  -0.01604   0.01933   0.00779
  21        3S          0.14564   0.15172   0.09858  -0.19084  -0.18390
  22        3PX        -0.00766  -0.00698   0.01348  -0.01870   0.01498
  23        3PY         0.01128  -0.00409   0.00770  -0.00069   0.03322
  24        3PZ        -0.00103   0.00301  -0.00062   0.00746   0.00292
  25        4XX         0.00130   0.00446  -0.00653   0.00668   0.00098
  26        4YY         0.00180  -0.00537   0.00629  -0.00004   0.00861
  27        4ZZ        -0.00476  -0.00215  -0.00185   0.00080  -0.00276
  28        4XY         0.00139   0.00014   0.00457  -0.00002   0.00334
  29        4XZ        -0.00235  -0.00329   0.00218  -0.00388   0.00020
  30        4YZ        -0.00037   0.00035  -0.00037  -0.00050   0.00142
  31 3   C  1S         -0.10080   0.01648  -0.12003   0.01040  -0.10229
  32        2S          0.18354  -0.03046   0.22487  -0.01937   0.19770
  33        2PX        -0.04497   0.01311   0.00889  -0.02230   0.05530
  34        2PY        -0.01269  -0.07543  -0.01350   0.12060   0.03746
  35        2PZ        -0.01561   0.03059  -0.01013  -0.03861   0.04024
  36        3S          0.14295  -0.02847   0.20757  -0.02460   0.23071
  37        3PX        -0.00888   0.00031   0.00122  -0.00741   0.00762
  38        3PY        -0.00210  -0.01213  -0.00266   0.03321   0.01119
  39        3PZ        -0.00114   0.00413  -0.00522  -0.01257   0.01692
  40        4XX        -0.00010  -0.00160  -0.00397   0.00184  -0.00025
  41        4YY         0.00270   0.00341   0.00114  -0.00413  -0.00925
  42        4ZZ        -0.00375  -0.00146  -0.00241   0.00320   0.00003
  43        4XY         0.00037   0.00723   0.00044  -0.00628  -0.00020
  44        4XZ         0.00256  -0.00334   0.00057   0.00302  -0.00292
  45        4YZ        -0.00245   0.00258  -0.00084  -0.00437   0.00284
  46 4   C  1S         -0.09654   0.11357  -0.02834  -0.09402   0.06273
  47        2S          0.17673  -0.21207   0.05124   0.18012  -0.12095
  48        2PX        -0.00954   0.03759   0.09674   0.06197   0.07907
  49        2PY        -0.03544  -0.00780  -0.02751   0.02827  -0.08332
  50        2PZ         0.02904  -0.01050   0.01178  -0.02364   0.07123
  51        3S          0.14045  -0.18985   0.05577   0.19930  -0.14899
  52        3PX        -0.00120   0.00516   0.01331   0.01272   0.02909
  53        3PY        -0.00951   0.00017  -0.00559   0.00654  -0.02301
  54        3PZ         0.00333   0.00130   0.00661  -0.00573   0.01842
  55        4XX         0.00191  -0.00338  -0.00506  -0.00704   0.00171
  56        4YY        -0.00086   0.00423   0.00257  -0.00066   0.00146
  57        4ZZ        -0.00208   0.00280   0.00090  -0.00018   0.00214
  58        4XY        -0.00184   0.00038  -0.00533   0.00124  -0.00239
  59        4XZ         0.00013   0.00191   0.00635   0.00263   0.00465
  60        4YZ        -0.00365  -0.00014  -0.00262   0.00133  -0.00618
  61 5   C  1S         -0.06774   0.09261   0.09630   0.08125   0.01430
  62        2S          0.13041  -0.18054  -0.19290  -0.16906  -0.02985
  63        2PX         0.04526  -0.04869   0.03753   0.12117  -0.07747
  64        2PY        -0.04266  -0.00105   0.06416   0.01754  -0.14183
  65        2PZ        -0.02577   0.05140   0.00758  -0.01583   0.08256
  66        3S          0.09704  -0.16316  -0.16758  -0.16937  -0.02267
  67        3PX         0.00928  -0.00847   0.00198   0.03598  -0.01502
  68        3PY        -0.01363   0.01473   0.02019   0.01611  -0.04447
  69        3PZ        -0.01140   0.01997   0.01742   0.01424   0.02977
  70        4XX         0.00383  -0.00553   0.00534   0.00784  -0.00557
  71        4YY         0.00066   0.00389  -0.00456  -0.00204   0.00704
  72        4ZZ        -0.00544   0.00499   0.00393   0.00002  -0.00039
  73        4XY        -0.00066  -0.00095  -0.00185  -0.00007   0.00205
  74        4XZ        -0.00225   0.00281   0.00061  -0.00296   0.00154
  75        4YZ        -0.00261   0.00050   0.00338  -0.00055  -0.00335
  76 6   C  1S         -0.04142  -0.00884   0.08141   0.00350  -0.07959
  77        2S          0.08154   0.01519  -0.16482  -0.00902   0.16754
  78        2PX         0.10085   0.02816  -0.12505   0.02075   0.06736
  79        2PY         0.01941  -0.09677  -0.05540  -0.16727   0.04314
  80        2PZ         0.02797   0.04644  -0.04684   0.05851   0.05581
  81        3S          0.04671   0.02179  -0.12458  -0.00405   0.14932
  82        3PX         0.02490   0.00548  -0.03948   0.00246   0.03489
  83        3PY         0.00255   0.00069  -0.01096  -0.02760   0.01823
  84        3PZ         0.00849   0.00446  -0.01761   0.00766   0.02527
  85        4XX        -0.00291   0.00044   0.00871   0.00128  -0.00637
  86        4YY         0.00589  -0.00224  -0.01019  -0.00469   0.00076
  87        4ZZ        -0.00121   0.00111   0.00253   0.00257  -0.00271
  88        4XY        -0.00255  -0.00771   0.00243  -0.00360  -0.00038
  89        4XZ        -0.00079   0.00317   0.00061   0.00216   0.00056
  90        4YZ        -0.00427  -0.00169   0.00577  -0.00290  -0.00096
  91 7   O  1S          0.03986   0.00698  -0.05573  -0.00236   0.03998
  92        2S         -0.09281  -0.01538   0.12991   0.00624  -0.09340
  93        2PX        -0.00868   0.00367  -0.01278   0.00673   0.04803
  94        2PY        -0.00433  -0.02319  -0.00825  -0.06038   0.02177
  95        2PZ        -0.00420   0.01027  -0.00550   0.02106   0.03046
  96        3S         -0.07881  -0.01857   0.13182   0.00442  -0.11230
  97        3PX         0.00236   0.00152  -0.01213   0.00233   0.02816
  98        3PY         0.00059  -0.01206  -0.00616  -0.03057   0.01153
  99        3PZ        -0.00010   0.00451  -0.00425   0.01019   0.01612
 100        4XX        -0.00043   0.00109  -0.00164   0.00156   0.00371
 101        4YY        -0.00038  -0.00100  -0.00018  -0.00242  -0.00023
 102        4ZZ        -0.00113   0.00087   0.00124   0.00172  -0.00040
 103        4XY        -0.00012  -0.00279  -0.00146  -0.00553   0.00244
 104        4XZ         0.00003   0.00146  -0.00160   0.00226   0.00363
 105        4YZ        -0.00035  -0.00065  -0.00007  -0.00147   0.00093
 106 8   F  1S          0.03361  -0.03670  -0.03726  -0.03029  -0.00146
 107        2S         -0.07328   0.07919   0.08031   0.06339   0.00346
 108        2PX         0.01187  -0.01412   0.01619   0.05551  -0.02989
 109        2PY        -0.02375   0.02344   0.05514   0.06421  -0.07253
 110        2PZ        -0.03096   0.06903   0.07294   0.11778   0.05456
 111        3S         -0.09877   0.11744   0.12119   0.10864   0.00390
 112        3PX         0.00527  -0.00667   0.01013   0.03278  -0.01808
 113        3PY        -0.01148   0.01148   0.03049   0.03814  -0.04323
 114        3PZ        -0.01663   0.03870   0.04213   0.07099   0.03410
[...]
  76 6   C  1S          1.99310
  77        2S          0.71775
  78        2PX         0.68824
  79        2PY         0.72336
  80        2PZ         0.51246
  81        3S          0.41177
  82        3PX         0.08720
  83        3PY         0.15675
  84        3PZ         0.24635
  85        4XX         0.01500
  86        4YY         0.00522
  87        4ZZ        -0.01275
  88        4XY         0.03141
  89        4XZ         0.01554
  90        4YZ         0.00682
  91 7   O  1S          1.99300
  92        2S          0.91671
  93        2PX         0.89340
  94        2PY         1.11095
  95        2PZ         0.82271
  96        3S          1.03491
  97        3PX         0.45480
  98        3PY         0.66941
  99        3PZ         0.54053
 100        4XX         0.00550
 101        4YY        -0.00973
 102        4ZZ        -0.00280
 103        4XY         0.00639
 104        4XZ         0.00879
 105        4YZ         0.00159
 106 8   F  1S          1.99367
 107        2S          0.94855
 108        2PX         1.19319
 109        2PY         1.12469
 110        2PZ         0.98001
 111        3S          0.96958
 112        3PX         0.73896
 113        3PY         0.70503
 114        3PZ         0.59398
 115        4XX         0.00967
 116        4YY         0.01558
 117        4ZZ         0.03038
 118        4XY         0.00095
 119        4XZ         0.00351
 120        4YZ         0.00550
 121 9   H  1S          0.51714
 122        2S          0.30161
 123        3PX         0.00245
 124        3PY         0.00258
 125        3PZ         0.00709
 126 10  H  1S          0.52091
 127        2S          0.30434
 128        3PX         0.00295
 129        3PY         0.00640
 130        3PZ         0.00218
 131 11  H  1S          0.52513
 132        2S          0.32509
 133        3PX         0.00217
 134        3PY         0.00291
 135        3PZ         0.00643
 136 12  H  1S          0.52588
 137        2S          0.32200
 138        3PX         0.00397
 139        3PY         0.00396
 140        3PZ         0.00370
 141 13  H  1S          0.52358
 142        2S          0.31990
 143        3PX         0.00230
 144        3PY         0.00276
 145        3PZ         0.00648
 146 14  H  1S          0.52565
 147        2S          0.32531
 148        3PX         0.00633
 149        3PY         0.00223
 150        3PZ         0.00306
 151 15  H  1S          0.52331
 152        2S          0.31349
 153        3PX         0.00287
 154        3PY         0.00650
 155        3PZ         0.00228
 156 16  H  1S          0.52255
 157        2S          0.32503
 158        3PX         0.00212
 159        3PY         0.00270
 160        3PZ         0.00681
 161 17  H  1S          0.53628
 162        2S          0.31561
 163        3PX         0.00436
 164        3PY         0.00326
 165        3PZ         0.00380
          Condensed to atoms (all electrons):
              1          2          3          4          5          6
     1  C    5.247966   0.307846  -0.044210  -0.014021  -0.107596   0.315608
     2  C    0.307846   5.043964   0.355202  -0.050394  -0.005158  -0.024392
     3  C   -0.044210   0.355202   5.033075   0.335714  -0.033442  -0.026437
     4  C   -0.014021  -0.050394   0.335714   5.187105   0.292467  -0.026247
     5  C   -0.107596  -0.005158  -0.033442   0.292467   4.887631   0.290990
     6  C    0.315608  -0.024392  -0.026437  -0.026247   0.290990   4.660437
     7  O   -0.078918   0.002213   0.000114   0.003116  -0.063804   0.544345
     8  F    0.004874  -0.002021   0.001048  -0.041876   0.228273  -0.028254
     9  H    0.377192  -0.035377  -0.002719  -0.001079   0.001919  -0.032581
    10  H    0.376050  -0.031079   0.004489  -0.000227   0.005031  -0.029770
    11  H   -0.045182   0.395321  -0.043196  -0.004254  -0.000213  -0.002494
    12  H   -0.030259   0.386515  -0.031996   0.005158  -0.000199   0.003523
    13  H   -0.002265  -0.041876   0.393090  -0.042999  -0.004364  -0.001687
    14  H    0.004813  -0.033089   0.389942  -0.033438   0.004212   0.000336
    15  H   -0.000470   0.005335  -0.036646   0.378150  -0.024626   0.004327
    16  H    0.000369  -0.005178  -0.038904   0.365188  -0.031093   0.001381
    17  H    0.007486  -0.000654   0.005976  -0.050409   0.375319  -0.050846
              7          8          9         10         11         12
     1  C   -0.078918   0.004874   0.377192   0.376050  -0.045182  -0.030259
     2  C    0.002213  -0.002021  -0.035377  -0.031079   0.395321   0.386515
     3  C    0.000114   0.001048  -0.002719   0.004489  -0.043196  -0.031996
     4  C    0.003116  -0.041876  -0.001079  -0.000227  -0.004254   0.005158
     5  C   -0.063804   0.228273   0.001919   0.005031  -0.000213  -0.000199
     6  C    0.544345  -0.028254  -0.032581  -0.029770  -0.002494   0.003523
     7  O    8.031377   0.000115   0.000341   0.003236   0.000340  -0.000079
     8  F    0.000115   9.170257   0.002471   0.000005  -0.000001  -0.000002
     9  H    0.000341   0.002471   0.540827  -0.022685   0.005246  -0.006408
    10  H    0.003236   0.000005  -0.022685   0.538965  -0.004145  -0.002808
    11  H    0.000340  -0.000001   0.005246  -0.004145   0.587072  -0.032215
    12  H   -0.000079  -0.000002  -0.006408  -0.002808  -0.032215   0.575853
    13  H   -0.000017   0.006087   0.003700   0.000002   0.005458  -0.004272
    14  H    0.000002   0.000034  -0.000017  -0.000155  -0.004570  -0.003136
    15  H   -0.000076   0.000090  -0.000019   0.000018   0.000025  -0.000188
    16  H   -0.000067   0.002531   0.000066  -0.000022   0.004642  -0.000005
    17  H    0.003934  -0.030359  -0.000006  -0.000121  -0.000089   0.000019
             13         14         15         16         17
     1  C   -0.002265   0.004813  -0.000470   0.000369   0.007486
     2  C   -0.041876  -0.033089   0.005335  -0.005178  -0.000654
     3  C    0.393090   0.389942  -0.036646  -0.038904   0.005976
     4  C   -0.042999  -0.033438   0.378150   0.365188  -0.050409
     5  C   -0.004364   0.004212  -0.024626  -0.031093   0.375319
     6  C   -0.001687   0.000336   0.004327   0.001381  -0.050846
     7  O   -0.000017   0.000002  -0.000076  -0.000067   0.003934
     8  F    0.006087   0.000034   0.000090   0.002531  -0.030359
     9  H    0.003700  -0.000017  -0.000019   0.000066  -0.000006
    10  H    0.000002  -0.000155   0.000018  -0.000022  -0.000121
    11  H    0.005458  -0.004570   0.000025   0.004642  -0.000089
    12  H   -0.004272  -0.003136  -0.000188  -0.000005   0.000019
    13  H    0.573113  -0.031373  -0.003528   0.005775   0.000177
    14  H   -0.031373   0.577540  -0.003087  -0.005306  -0.000130
    15  H   -0.003528  -0.003087   0.560681  -0.025980  -0.005549
    16  H    0.005775  -0.005306  -0.025980   0.585981  -0.000182
    17  H    0.000177  -0.000130  -0.005549  -0.000182   0.608745
 Mulliken atomic charges:
              1
     1  C   -0.319283
     2  C   -0.267178
     3  C   -0.261099
     4  C   -0.301955
     5  C    0.184653
     6  C    0.401760
     7  O   -0.446172
     8  F   -0.313271
     9  H    0.169131
    10  H    0.163216
    11  H    0.138257
    12  H    0.140501
    13  H    0.144980
    14  H    0.137422
    15  H    0.151544
    16  H    0.140804
    17  H    0.136689
 Sum of Mulliken atomic charges =  -0.00000
 Mulliken charges with hydrogens summed into heavy atoms:
              1
     1  C    0.013065
     2  C    0.011580
     3  C    0.021303
     4  C   -0.009607
     5  C    0.321342
     6  C    0.401760
     7  O   -0.446172
     8  F   -0.313271
 Sum of Mulliken charges with hydrogens summed into heavy atoms =  -0.00000
 Electronic spatial extent (au):  <R**2>=            881.6530
 Charge=             -0.0000 electrons
 Dipole moment (field-independent basis, Debye):
    X=              3.0174    Y=             -0.1645    Z=             -0.2969  Tot=              3.0364
 Quadrupole moment (field-independent basis, Debye-Ang):
   XX=            -52.7350   YY=            -46.7112   ZZ=            -46.2735
   XY=             -2.0165   XZ=             -1.5962   YZ=             -3.1576
 Traceless Quadrupole moment (field-independent basis, Debye-Ang):
   XX=             -4.1617   YY=              1.8620   ZZ=              2.2997
   XY=             -2.0165   XZ=             -1.5962   YZ=             -3.1576
 Octapole moment (field-independent basis, Debye-Ang**2):
  XXX=              8.5395  YYY=              6.9283  ZZZ=              5.6816  XYY=             -1.0196
  XXY=              9.8039  XXZ=              6.2557  XZZ=             -1.9628  YZZ=              1.5397
  YYZ=             -0.5297  XYZ=              2.4951
 Hexadecapole moment (field-independent basis, Debye-Ang**3):
 XXXX=           -546.1495 YYYY=           -401.3515 ZZZZ=           -150.0756 XXXY=            -15.7904
 XXXZ=            -12.7486 YYYX=              1.0983 YYYZ=              5.4993 ZZZX=             -0.0148
 ZZZY=             12.1863 XXYY=           -155.2058 XXZZ=           -112.3973 YYZZ=            -95.4703
 XXYZ=             -0.8889 YYXZ=              1.7121 ZZXY=             -1.1976
 N-N= 3.952932432312D+02 E-N=-1.747202872194D+03  KE= 4.054770204858D+02
 Orbital energies and kinetic energies (alpha):
                                 1                 2
   1         O               -24.776099         37.099288
   2         O               -19.225372         29.045536
   3         O               -10.328314         15.904198
   4         O               -10.315902         15.908805
   5         O               -10.245844         15.903188
   6         O               -10.244966         15.903532
   7         O               -10.243666         15.903715
   8         O               -10.241293         15.904956
   9         O                -1.235306          3.584982
  10         O                -1.063290          2.623696
  11         O                -0.865612          1.424146
  12         O                -0.786926          1.513754
  13         O                -0.753713          1.673338
  14         O                -0.656088          1.521780
  15         O                -0.623241          1.433964
  16         O                -0.569055          1.839261
  17         O                -0.527611          1.620844
  18         O                -0.507487          1.619117
  19         O                -0.491832          1.742466
  20         O                -0.475817          1.646473
  21         O                -0.450424          1.359207
  22         O                -0.442480          1.557391
  23         O                -0.426560          1.737160
  24         O                -0.410625          1.658686
  25         O                -0.397888          1.770927
  26         O                -0.378917          2.069538
  27         O                -0.364875          1.822124
  28         O                -0.347974          1.284624
  29         O                -0.341228          1.508791
  30         O                -0.331318          1.856713
  31         O                -0.257579          2.296310
  32         V                -0.032398          1.999314
  33         V                 0.088515          1.006265
  34         V                 0.123742          0.902924
  35         V                 0.138887          1.027837
  36         V                 0.152206          1.117960
  37         V                 0.154445          1.286507
  38         V                 0.165536          1.235341
  39         V                 0.173672          1.127107
  40         V                 0.180208          1.166315
  41         V                 0.185925          1.148819
  42         V                 0.207600          1.520871
  43         V                 0.213894          1.602630
  44         V                 0.235482          1.714116
  45         V                 0.243820          1.815457
  46         V                 0.272639          1.587210
  47         V                 0.276272          1.786115
  48         V                 0.333814          1.984123
  49         V                 0.359693          1.810266
  50         V                 0.522821          1.800288
  51         V                 0.527167          1.985137
  52         V                 0.537918          1.879500
  53         V                 0.546697          1.897804
  54         V                 0.563064          2.042643
  55         V                 0.586952          2.364537
  56         V                 0.616113          2.313417
  57         V                 0.633737          2.722714
  58         V                 0.655360          2.487365
  59         V                 0.659655          2.601144
  60         V                 0.686845          3.079004
  61         V                 0.710068          2.230612
  62         V                 0.723520          2.371898
  63         V                 0.752334          2.487820
  64         V                 0.766312          2.565963
  65         V                 0.814912          2.496944
  66         V                 0.822669          2.402102
  67         V                 0.839305          2.501271
  68         V                 0.853950          2.447708
  69         V                 0.877867          2.494482
  70         V                 0.887949          2.365631
  71         V                 0.907571          2.504593
  72         V                 0.920566          2.466995
  73         V                 0.930953          2.521839
  74         V                 0.939068          2.531642
  75         V                 0.946051          2.487748
  76         V                 0.979457          2.735357
  77         V                 1.043841          2.350020
  78         V                 1.072835          2.333559
  79         V                 1.083648          2.882161
  80         V                 1.127441          3.173090
  81         V                 1.155570          2.628660
  82         V                 1.195684          2.685606
  83         V                 1.252562          2.551090
  84         V                 1.317010          2.641975
  85         V                 1.343777          2.689800
  86         V                 1.389644          3.886508
  87         V                 1.402384          3.300828
  88         V                 1.420063          2.764266
  89         V                 1.450096          2.699010
  90         V                 1.458514          2.666154
  91         V                 1.579003          2.835795
  92         V                 1.610433          2.719967
  93         V                 1.623478          2.702529
  94         V                 1.648042          2.771253
  95         V                 1.665203          2.902133
  96         V                 1.697002          2.830116
  97         V                 1.729739          3.139477
  98         V                 1.777780          3.102523
  99         V                 1.785964          2.942702
 100         V                 1.810896          2.929460
 101         V                 1.839003          3.076510
 102         V                 1.870728          3.217233
 103         V                 1.877835          3.072979
 104         V                 1.905525          3.259339
 105         V                 1.925177          3.252227
 106         V                 1.940725          3.240281
 107         V                 1.972837          3.169990
 108         V                 1.977892          3.326850
 109         V                 2.003684          3.284224
 110         V                 2.010725          3.340908
 111         V                 2.029056          3.320560
 112         V                 2.099864          3.286611
 113         V                 2.118522          3.309399
 114         V                 2.154736          3.508988
 115         V                 2.162929          3.373639
 116         V                 2.179832          3.402191
 117         V                 2.207276          3.234837
 118         V                 2.226215          3.511055
 119         V                 2.244019          3.302574
 120         V                 2.269551          3.500997
 121         V                 2.289385          3.610737
 122         V                 2.310132          3.714604
 123         V                 2.341434          3.338574
 124         V                 2.356931          3.316790
 125         V                 2.392630          3.572081
 126         V                 2.430036          3.522633
 127         V                 2.445837          3.520549
 128         V                 2.467386          3.692977
 129         V                 2.506616          3.510519
 130         V                 2.531490          3.726367
 131         V                 2.584180          3.752605
 132         V                 2.603837          3.943552
 133         V                 2.633248          3.632250
 134         V                 2.666668          3.934013
 135         V                 2.674737          3.964912
 136         V                 2.733390          3.917147
 137         V                 2.745083          3.956807
 138         V                 2.759000          3.891207
 139         V                 2.815325          4.057547
 140         V                 2.851312          4.049216
 141         V                 2.858736          4.083273
 142         V                 2.884011          4.183103
 143         V                 2.924622          4.071216
 144         V                 2.941869          4.136075
 145         V                 2.958700          4.174785
 146         V                 3.025272          4.954610
 147         V                 3.049882          4.578661
 148         V                 3.135104          5.746561
 149         V                 3.244995          4.918703
 150         V                 3.304129          4.986702
 151         V                 3.333881          4.963794
 152         V                 3.343312          5.005205
 153         V                 3.423688          5.233432
 154         V                 3.483214          5.139331
 155         V                 3.490304          5.192760
 156         V                 3.515208          5.129038
 157         V                 3.582142          5.202432
 158         V                 3.970165         10.428148
 159         V                 4.271804         10.156728
 160         V                 4.375206         10.577662
 161         V                 4.425551         10.434389
 162         V                 4.624166         10.830879
 163         V                 4.744383         10.391322
 164         V                 4.770209         10.721750
 165         V                 4.954740         12.070934
 Total kinetic energy from orbitals= 4.054770204858D+02
 1\1\GINC-NEUMANN2\SP\RPBE1PBE TD-FC\6-31G(d,p)\C6H9F1O1\ANV\20-Nov-202
 3\0\\#N PBE1PBE 6-31G** td=(nstates=25) gfinput pop=full\\2fluorocyclo
 hexanone/2fluorocyclohexanone_2.dat\\0,1\C,0,0.,0.,0.\C,0,1.5229,0.,0.
 \C,0,2.0905,1.4177,0.\C,0,1.5697,2.2146,-1.1956\C,0,0.0479,2.265,-1.21
 43\C,0,-0.5335,0.8643,-1.1217\O,0,-1.4521,0.4775,-1.8527\F,0,-0.3737,3
 .0381,-0.1658\H,0,-0.3906,0.3911,0.9457\H,0,-0.3718,-1.0223,-0.1255\H,
 0,1.8882,-0.5324,-0.8871\H,0,1.891,-0.5453,0.8761\H,0,1.8186,1.9259,0.
 9331\H,0,3.1848,1.3749,-0.0366\H,0,1.9705,3.2331,-1.1468\H,0,1.9363,1.
 7554,-2.1217\H,0,-0.3028,2.7412,-2.1352\\Version=EM64L-G09RevC.01\Stat
 e=1-A\HF=-408.6753013\RMSD=2.694e-09\PG=C01 [X(C6H9F1O1)]\\@


 A COMPLEXITY IS MERELY A DISARRANGEMENT OF SIMPLICITIES.

                                    -- G. O. ABELL IN "EXPLORATION OF THE UNIVERSE"
 Job cpu time:  0 days  0 hours 17 minutes 12.2 seconds.
 File lengths (MBytes):  RWF=    161 Int=      0 D2E=      0 Chk=     25 Scr=      1
 Normal termination of Gaussian 09 at Mon Nov 20 22:43:09 2023.
