 Entering Gaussian System, Link 0=g09
 Initial command:
 /home/anv/software/gaussian09/g09/l1.exe /scratch/local/2fluorocyclohexanone-vcd/2fluorocyclohexanone-vcd_3/Gau-3253.inp -scrdir=/scratch/local/2fluorocyclohexanone-vcd/2fluorocyclohexanone-vcd_3/
 Entering Link 1 = /home/anv/software/gaussian09/g09/l1.exe PID=      3255.
  
 Copyright (c) 1988,1990,1992,1993,1995,1998,2003,2009,2011,
            Gaussian, Inc.  All Rights Reserved.
  
 This is part of the Gaussian(R) 09 program.  It is based on
 the Gaussian(R) 03 system (copyright 2003, Gaussian, Inc.),
 the Gaussian(R) 98 system (copyright 1998, Gaussian, Inc.),
 the Gaussian(R) 94 system (copyright 1995, Gaussian, Inc.),
 the Gaussian 92(TM) system (copyright 1992, Gaussian, Inc.),
 the Gaussian 90(TM) system (copyright 1990, Gaussian, Inc.),
 the Gaussian 88(TM) system (copyright 1988, Gaussian, Inc.),
 the Gaussian 86(TM) system (copyright 1986, Carnegie Mellon
 University), and the Gaussian 82(TM) system (copyright 1983,
 Carnegie Mellon University). Gaussian is a federally registered
 trademark of Gaussian, Inc.
  
 This software contains proprietary and confidential information,
 including trade secrets, belonging to Gaussian, Inc.
  
 This software is provided under written license and may be
 used, copied, transmitted, or stored only in accord with that
 written license.
  
 The following legend is applicable only to US Government
 contracts under FAR:
  
                    RESTRICTED RIGHTS LEGEND
  
 Use, reproduction and disclosure by the US Government is
 subject to restrictions as set forth in subparagraphs (a)
 and (c) of the Commercial Computer Software - Restricted
 Rights clause in FAR 52.227-19.
  
 Gaussian, Inc.
 340 Quinnipiac St., Bldg. 40, Wallingford CT 06492
  
  
 ---------------------------------------------------------------
 Warning -- This program may not be used in any manner that
 competes with the business of Gaussian, Inc. or will provide
 assistance to any competitor of Gaussian, Inc.  The licensee
 of this program is prohibited from giving any competitor of
 Gaussian, Inc. access to this program.  By using this program,
 the user acknowledges that Gaussian, Inc. is engaged in the
 business of creating and licensing software in the field of
 computational chemistry and represents and warrants to the
 licensee that it is not a competitor of Gaussian, Inc. and that
 it will not use this program in any manner prohibited above.
 ---------------------------------------------------------------
  

 Cite this work as:
 Gaussian 09, Revision C.01,
 M. J. Frisch, G. W. Trucks, H. B. Schlegel, G. E. Scuseria, 
 M. A. Robb, J. R. Cheeseman, G. Scalmani, V. Barone, B. Mennucci, 
 G. A. Petersson, H. Nakatsuji, M. Caricato, X. Li, H. P. Hratchian, 
 A. F. Izmaylov, J. Bloino, G. Zheng, J. L. Sonnenberg, M. Hada, 
 M. Ehara, K. Toyota, R. Fukuda, J. Hasegawa, M. Ishida, T. Nakajima, 
 Y. Honda, O. Kitao, H. Nakai, T. Vreven, J. A. Montgomery, Jr., 
 J. E. Peralta, F. Ogliaro, M. Bearpark, J. J. Heyd, E. Brothers, 
 K. N. Kudin, V. N. Staroverov, T. Keith, R. Kobayashi, J. Normand, 
 K. Raghavachari, A. Rendell, J. C. Burant, S. S. Iyengar, J. Tomasi, 
 M. Cossi, N. Rega, J. M. Millam, M. Klene, J. E. Knox, J. B. Cross, 
 V. Bakken, C. Adamo, J. Jaramillo, R. Gomperts, R. E. Stratmann, 
 O. Yazyev, A. J. Austin, R. Cammi, C. Pomelli, J. W. Ochterski, 
 R. L. Martin, K. Morokuma, V. G. Zakrzewski, G. A. Voth, 
 P. Salvador, J. J. Dannenberg, S. Dapprich, A. D. Daniels, 
 O. Farkas, J. B. Foresman, J. V. Ortiz, J. Cioslowski, 
 and D. J. Fox, Gaussian, Inc., Wallingford CT, 2010.
 
 ******************************************
 Gaussian 09:  EM64L-G09RevC.01 23-Sep-2011
                 4-Dec-2023 
 ******************************************
 %chk=2fluorocyclohexanone-vcd_3
 %mem=8192mb
 %nproc=6
 Will use up to    6 processors via shared memory.
 ----------------------------------
 #N PBE1PBE 6-31G* freq=(vcd,raman)
 ----------------------------------
 1/10=4,30=1,38=1/1,3;
 2/12=2,17=6,18=5,40=1/2;
 3/5=1,6=6,7=1,11=2,16=1,25=1,30=1,36=2,71=2,74=-13/1,2,3;
 4//1;
 5/5=2,38=5,98=1/2;
 8/6=4,10=90,11=11/1;
 10/13=10,15=4,46=1/2;
 11/6=3,8=1,9=11,15=111,16=1/1,2,10;
 10/6=1,46=1/2;
 6/7=2,8=2,9=2,10=2,18=1,28=1/1;
 7/8=1,10=1,25=1/1,2,3,16;
 1/10=4,30=1/3;
 99//99;
 -------------------------------------------------------
 2fluorocyclohexanone-vcd/2fluorocyclohexanone-vcd_3.dat
 -------------------------------------------------------
 Charge =  0 Multiplicity = 1
 Symbolic Z-Matrix:
 6                     0.7254    1.4416   -0.1692 
 6                     1.8113    0.5547    0.4337 
 6                     1.792    -0.8652   -0.1571 
 6                     0.3646   -1.3787   -0.4364 
 6                    -0.6791   -0.6244    0.3767 
 6                    -0.6646    0.8495   -0.0116 
 8                    -1.6789    1.4738   -0.2115 
 9                    -1.9269   -1.1511    0.1647 
 1                     0.8903    1.5733   -1.249 
 1                     0.7203    2.4492    0.2606 
 1                     1.6662    0.5052    1.5209 
 1                     2.7966    1.0094    0.2845 
 1                     2.3641   -0.8826   -1.0915 
 1                     2.3104   -1.543     0.53 
 1                     0.1068   -1.2552   -1.4954 
 1                     0.2743   -2.4477   -0.2189 
 1                    -0.453    -0.7042    1.4521 
 

 GradGradGradGradGradGradGradGradGradGradGradGradGradGradGradGradGradGrad
 Berny optimization.
 Initialization pass.
 Trust Radius=3.00D-01 FncErr=1.00D-07 GrdErr=1.00D-07
 Number of steps in this run=      2 maximum allowed number of steps=      2.
 GradGradGradGradGradGradGradGradGradGradGradGradGradGradGradGradGradGrad

                          Input orientation:                          
 ---------------------------------------------------------------------
 Center     Atomic      Atomic             Coordinates (Angstroms)
 Number     Number       Type             X           Y           Z
 ---------------------------------------------------------------------
      1          6           0        0.725400    1.441600   -0.169200
      2          6           0        1.811300    0.554700    0.433700
      3          6           0        1.792000   -0.865200   -0.157100
      4          6           0        0.364600   -1.378700   -0.436400
      5          6           0       -0.679100   -0.624400    0.376700
      6          6           0       -0.664600    0.849500   -0.011600
      7          8           0       -1.678900    1.473800   -0.211500
      8          9           0       -1.926900   -1.151100    0.164700
      9          1           0        0.890300    1.573300   -1.249000
     10          1           0        0.720300    2.449200    0.260600
     11          1           0        1.666200    0.505200    1.520900
     12          1           0        2.796600    1.009400    0.284500
     13          1           0        2.364100   -0.882600   -1.091500
     14          1           0        2.310400   -1.543000    0.530000
     15          1           0        0.106800   -1.255200   -1.495400
     16          1           0        0.274300   -2.447700   -0.218900
     17          1           0       -0.453000   -0.704200    1.452100
 ---------------------------------------------------------------------
                    Distance matrix (angstroms):
                    1          2          3          4          5
     1  C    0.000000
     2  C    1.526191   0.000000
     3  C    2.541478   1.538029   0.000000
     4  C    2.855812   2.566720   1.542453   0.000000
     5  C    2.557144   2.756015   2.539540   1.522961   0.000000
     6  C    1.519052   2.532840   2.999375   2.490900   1.524260
     7  O    2.404888   3.666405   4.185813   3.516138   2.397503
     8  F    3.724014   4.117797   3.743730   2.379936   1.370898
     9  H    1.100229   2.171927   2.819857   3.106603   3.152111
    10  H    1.095451   2.193029   3.508313   3.907064   3.379174
    11  H    2.149043   1.097956   2.170140   3.012352   2.843523
    12  H    2.163911   1.095367   2.172178   3.483869   3.841652
    13  H    2.989629   2.167407   1.095767   2.161775   3.388708
    14  H    3.450934   2.158407   1.095563   2.178775   3.131204
    15  H    3.068257   3.146821   2.187018   1.096902   2.126101
    16  H    3.915688   3.435500   2.193522   1.094633   2.141993
    17  H    2.936273   2.783707   2.766852   2.165607   1.101805
                    6          7          8          9         10
     6  C    0.000000
     7  O    1.207690   0.000000
     8  F    2.372105   2.663293   0.000000
     9  H    2.114890   2.772561   4.166236   0.000000
    10  H    2.133326   2.632574   4.469790   1.753566   0.000000
    11  H    2.810645   3.889613   4.182460   3.068421   2.502443
    12  H    3.477520   4.526785   5.195533   2.510694   2.526780
    13  H    3.652311   4.761604   4.479153   2.868508   3.953624
    14  H    3.855906   5.056226   4.271035   3.859126   4.305654
    15  H    2.688212   3.504934   2.627300   2.945335   4.145178
    16  H    3.434536   4.381005   2.583332   4.196308   4.940492
    17  H    2.145035   3.002346   2.007361   3.779868   3.569347
                   11         12         13         14         15
    11  H    0.000000
    12  H    1.749488   0.000000
    13  H    3.039356   2.379096   0.000000
    14  H    2.364741   2.609867   1.751649   0.000000
    15  H    3.824762   3.941000   2.323224   3.006813   0.000000
    16  H    3.699177   4.308938   2.752859   2.350540   1.754869
    17  H    2.440981   3.854817   3.799708   3.031540   3.050366
                   16         17
    16  H    0.000000
    17  H    2.522102   0.000000
 Stoichiometry    C6H9FO
 Framework group  C1[X(C6H9FO)]
 Deg. of freedom    45
 Full point group                 C1      NOp   1
 Largest Abelian subgroup         C1      NOp   1
 Largest concise Abelian subgroup C1      NOp   1
                         Standard orientation:                         
 ---------------------------------------------------------------------
 Center     Atomic      Atomic             Coordinates (Angstroms)
 Number     Number       Type             X           Y           Z
 ---------------------------------------------------------------------
      1          6           0        0.725394    1.441602   -0.169203
      2          6           0        1.811295    0.554703    0.433697
      3          6           0        1.791996   -0.865197   -0.157103
      4          6           0        0.364596   -1.378698   -0.436403
      5          6           0       -0.679104   -0.624399    0.376697
      6          6           0       -0.664605    0.849501   -0.011603
      7          8           0       -1.678906    1.473801   -0.211503
      8          9           0       -1.926904   -1.151099    0.164697
      9          1           0        0.890294    1.573302   -1.249003
     10          1           0        0.720294    2.449202    0.260597
     11          1           0        1.666195    0.505203    1.520897
     12          1           0        2.796595    1.009403    0.284497
     13          1           0        2.364096   -0.882597   -1.091503
     14          1           0        2.310396   -1.542997    0.529997
     15          1           0        0.106796   -1.255198   -1.495403
     16          1           0        0.274296   -2.447698   -0.218903
     17          1           0       -0.453004   -0.704199    1.452097
 ---------------------------------------------------------------------
 Rotational constants (GHZ):      2.9235979      2.0028375      1.2989655
 Standard basis: 6-31G(d) (6D, 7F)
 There are   138 symmetry adapted basis functions of A   symmetry.
 Integral buffers will be    131072 words long.
 Raffenetti 2 integral format.
 Two-electron integral symmetry is turned on.
   138 basis functions,   260 primitive gaussians,   138 cartesian basis functions
    31 alpha electrons       31 beta electrons
       nuclear repulsion energy       392.3344677237 Hartrees.
 NAtoms=   17 NActive=   17 NUniq=   17 SFac= 1.00D+00 NAtFMM=   60 NAOKFM=F Big=F
 One-electron integrals computed using PRISM.
 NBasis=   138 RedAO= T  NBF=   138
 NBsUse=   138 1.00D-06 NBFU=   138
 Harris functional with IExCor= 1009 diagonalized for initial guess.
 ExpMin= 1.61D-01 ExpMax= 7.00D+03 ExpMxC= 1.05D+03 IAcc=1 IRadAn=         1 AccDes= 0.00D+00
 HarFok:  IExCor= 1009 AccDes= 0.00D+00 IRadAn=         1 IDoV= 1
 ScaDFX=  1.000000  1.000000  1.000000  1.000000
 FoFCou: FMM=F IPFlag=           0 FMFlag=      100000 FMFlg1=           0
         NFxFlg=           0 DoJE=T BraDBF=F KetDBF=T FulRan=T
         Omega=  0.000000  0.000000  1.000000  0.000000  0.000000 ICntrl=     500 IOpCl=  0
         NMat0=    1 NMatS0=    1 NMatT0=    0 NMatD0=    1 NMtDS0=    0 NMtDT0=    0
         I1Cent=           4 NGrid=           0.
 Petite list used in FoFCou.
 Initial guess orbital symmetries:
       Occupied  (A) (A) (A) (A) (A) (A) (A) (A) (A) (A) (A) (A)
                 (A) (A) (A) (A) (A) (A) (A) (A) (A) (A) (A) (A)
                 (A) (A) (A) (A) (A) (A) (A)
       Virtual   (A) (A) (A) (A) (A) (A) (A) (A) (A) (A) (A) (A)
                 (A) (A) (A) (A) (A) (A) (A) (A) (A) (A) (A) (A)
                 (A) (A) (A) (A) (A) (A) (A) (A) (A) (A) (A) (A)
                 (A) (A) (A) (A) (A) (A) (A) (A) (A) (A) (A) (A)
                 (A) (A) (A) (A) (A) (A) (A) (A) (A) (A) (A) (A)
                 (A) (A) (A) (A) (A) (A) (A) (A) (A) (A) (A) (A)
                 (A) (A) (A) (A) (A) (A) (A) (A) (A) (A) (A) (A)
                 (A) (A) (A) (A) (A) (A) (A) (A) (A) (A) (A) (A)
                 (A) (A) (A) (A) (A) (A) (A) (A) (A) (A) (A)
 The electronic state of the initial guess is 1-A.
 Requested convergence on RMS density matrix=1.00D-08 within 128 cycles.
 Requested convergence on MAX density matrix=1.00D-06.
 Requested convergence on             energy=1.00D-06.
 No special actions if energy rises.
 Keep R1 ints in memory in canonical form, NReq=47559431.
 Integral accuracy reduced to 1.0D-05 until final iterations.
 Initial convergence to 1.0D-05 achieved.  Increase integral accuracy.
 SCF Done:  E(RPBE1PBE) =  -408.660642369     A.U. after   14 cycles
             Convg  =    0.4090D-08             -V/T =  2.0079
 Range of M.O.s used for correlation:     1   138
 NBasis=   138 NAE=    31 NBE=    31 NFC=     0 NFV=     0
 NROrb=    138 NOA=    31 NOB=    31 NVA=   107 NVB=   107
          Differentiating once with respect to electric field.
                with respect to dipole field.
          Differentiating once with respect to magnetic field using GIAOs.
          Electric field/nuclear overlap derivatives assumed to be zero.
          Keep R1 and R3 ints in memory in canonical form, NReq=92821433.
 FoFCou: FMM=F IPFlag=           0 FMFlag=           0 FMFlg1=           0
         NFxFlg=           0 DoJE=F BraDBF=F KetDBF=T FulRan=T
         Omega=  0.000000  0.000000  1.000000  0.000000  0.000000 ICntrl=    6100 IOpCl=  0
         NMat0=    1 NMatS0=    1 NMatT0=    0 NMatD0=    1 NMtDS0=    0 NMtDT0=    0
         I1Cent=           7 NGrid=          17.
 Symmetry not used in FoFCou.
 CalDSu exits because no D1Ps are significant.
          There are     6 degrees of freedom in the 1st order CPHF.  IDoFFX=0.
      6 vectors produced by pass  0 Test12= 1.11D-13 1.67D-08 XBig12= 8.15D+01 1.75D+00.
 AX will form     6 AO Fock derivatives at one time.
      6 vectors produced by pass  1 Test12= 1.11D-13 1.67D-08 XBig12= 2.18D+01 9.13D-01.
      6 vectors produced by pass  2 Test12= 1.11D-13 1.67D-08 XBig12= 6.63D+00 2.77D-01.
      6 vectors produced by pass  3 Test12= 1.11D-13 1.67D-08 XBig12= 8.94D-01 1.36D-01.
      6 vectors produced by pass  4 Test12= 1.11D-13 1.67D-08 XBig12= 5.81D-02 2.48D-02.
      6 vectors produced by pass  5 Test12= 1.11D-13 1.67D-08 XBig12= 1.21D-02 1.62D-02.
      4 vectors produced by pass  6 Test12= 1.11D-13 1.67D-08 XBig12= 1.17D-03 1.18D-02.
      3 vectors produced by pass  7 Test12= 1.11D-13 1.67D-08 XBig12= 7.81D-05 3.24D-03.
      3 vectors produced by pass  8 Test12= 1.11D-13 1.67D-08 XBig12= 4.03D-06 5.25D-04.
      3 vectors produced by pass  9 Test12= 1.11D-13 1.67D-08 XBig12= 1.65D-07 6.26D-05.
      3 vectors produced by pass 10 Test12= 1.11D-13 1.67D-08 XBig12= 5.42D-09 8.01D-06.
      3 vectors produced by pass 11 Test12= 1.11D-13 1.67D-08 XBig12= 1.85D-10 1.64D-06.
      3 vectors produced by pass 12 Test12= 1.11D-13 1.67D-08 XBig12= 6.91D-12 2.43D-07.
      1 vectors produced by pass 13 Test12= 1.11D-13 1.67D-08 XBig12= 1.37D-13 3.23D-08.
 Inverted reduced A of dimension    59 with in-core refinement.
 Calculating GIAO nuclear magnetic shielding tensors.
 SCF GIAO Magnetic shielding tensor (ppm):
      1  C    Isotropic =   158.3027   Anisotropy =    24.8829
   XX=   171.4080   YX=     7.7041   ZX=     3.9736
   XY=     8.0294   YY=   156.3862   ZY=     1.8407
   XZ=    -0.3763   YZ=    -1.0580   ZZ=   147.1140
   Eigenvalues:   146.9765   153.0404   174.8914
      2  C    Isotropic =   176.0016   Anisotropy =    11.4573
   XX=   174.3790   YX=    -0.7742   ZX=     3.8064
   XY=     0.8500   YY=   183.1618   ZY=     2.0117
   XZ=     3.5822   YZ=     2.6875   ZZ=   170.4640
   Eigenvalues:   167.9758   176.3892   183.6398
      3  C    Isotropic =   175.5115   Anisotropy =    11.5908
   XX=   178.4681   YX=     2.6708   ZX=     1.6986
   XY=    -1.3543   YY=   181.6800   ZY=     2.2806
   XZ=     2.3507   YZ=     6.8511   ZZ=   166.3863
   Eigenvalues:   164.8930   178.4026   183.2387
      4  C    Isotropic =   169.6548   Anisotropy =    24.6929
   XX=   184.9892   YX=     8.1029   ZX=    -3.1725
   XY=     0.7630   YY=   164.3008   ZY=    12.0210
   XZ=    -5.9690   YZ=    12.1337   ZZ=   159.6744
   Eigenvalues:   148.5837   174.2639   186.1167
      5  C    Isotropic =   107.2172   Anisotropy =    66.7206
   XX=   130.7979   YX=    26.3510   ZX=    -1.7627
   XY=    33.7928   YY=   104.3251   ZY=    19.2149
   XZ=     3.5647   YZ=    10.8876   ZZ=    86.5288
   Eigenvalues:    72.9769    96.9771   151.6977
      6  C    Isotropic =    -4.9295   Anisotropy =   164.7970
   XX=   -52.9935   YX=   -14.1768   ZX=    -1.4223
   XY=   -27.5459   YY=   -54.4566   ZY=    42.4784
   XZ=    -0.1734   YZ=    44.9886   ZZ=    92.6616
   Eigenvalues:   -80.8219   -38.9018   104.9351
      7  O    Isotropic =  -278.8201   Anisotropy =  1008.7939
   XX=  -725.3471   YX=   211.4014   ZX=   -89.9773
   XY=   204.2364   YY=  -436.7780   ZY=   243.7431
   XZ=   -79.2642   YZ=   229.5763   ZZ=   325.6649
   Eigenvalues:  -864.0928  -366.0766   393.7092
      8  F    Isotropic =   408.1337   Anisotropy =    13.4602
   XX=   401.9394   YX=    -5.5872   ZX=    -1.8841
   XY=    -9.7809   YY=   408.0607   ZY=    -2.6239
   XZ=    -4.7783   YZ=     5.6286   ZZ=   414.4010
   Eigenvalues:   396.5172   410.7768   417.1071
      9  H    Isotropic =    29.7608   Anisotropy =     6.5383
   XX=    27.7825   YX=    -0.3317   ZX=    -0.1954
   XY=    -1.1534   YY=    29.4511   ZY=    -3.3137
   XZ=    -0.5716   YZ=    -2.9020   ZZ=    32.0489
   Eigenvalues:    26.7271    28.4356    34.1197
     10  H    Isotropic =    29.8974   Anisotropy =     7.9032
   XX=    28.5038   YX=    -0.2732   ZX=     1.0580
   XY=    -2.2914   YY=    34.6796   ZY=     1.5654
   XZ=     1.4618   YZ=     1.7609   ZZ=    26.5088
   Eigenvalues:    25.4395    29.0865    35.1662
     11  H    Isotropic =    30.3420   Anisotropy =     8.1359
   XX=    26.6676   YX=    -0.4851   ZX=     1.2470
   XY=     0.3100   YY=    28.9969   ZY=     1.8156
   XZ=     1.1728   YZ=     0.7751   ZZ=    35.3616
   Eigenvalues:    26.4731    28.7870    35.7659
     12  H    Isotropic =    30.4983   Anisotropy =     9.7413
   XX=    34.9152   YX=     3.0982   ZX=     0.2502
   XY=     3.9273   YY=    30.8996   ZY=     0.4254
   XZ=     0.7694   YZ=     0.4655   ZZ=    25.6800
   Eigenvalues:    25.6358    28.8665    36.9925
     13  H    Isotropic =    30.3351   Anisotropy =     9.0810
   XX=    31.9778   YX=     0.1000   ZX=    -4.6264
   XY=     0.5420   YY=    27.5608   ZY=     2.2954
   XZ=    -4.3349   YZ=     1.9733   ZZ=    31.4667
   Eigenvalues:    25.5519    29.0642    36.3891
     14  H    Isotropic =    30.2565   Anisotropy =     9.1989
   XX=    30.4551   YX=    -2.9265   ZX=     3.9013
   XY=    -2.6945   YY=    32.5668   ZY=    -2.5915
   XZ=     3.1271   YZ=    -2.1648   ZZ=    27.7476
   Eigenvalues:    25.3104    29.0700    36.3891
     15  H    Isotropic =    30.3047   Anisotropy =     7.2741
   XX=    29.8837   YX=     0.8438   ZX=     1.9961
   XY=     0.9792   YY=    26.8804   ZY=     1.4616
   XZ=     1.5385   YZ=     1.5824   ZZ=    34.1499
   Eigenvalues:    26.4738    29.2861    35.1541
     16  H    Isotropic =    30.0397   Anisotropy =     8.1335
   XX=    29.5343   YX=     1.8912   ZX=    -0.1422
   XY=     0.9144   YY=    35.1198   ZY=    -1.0914
   XZ=     0.0964   YZ=     0.4614   ZZ=    25.4651
   Eigenvalues:    25.4548    29.2024    35.4621
     17  H    Isotropic =    27.0501   Anisotropy =     5.5499
   XX=    29.7827   YX=     2.5385   ZX=    -0.8457
   XY=     2.6625   YY=    23.1354   ZY=     2.1198
   XZ=    -0.6728   YZ=    -0.2266   ZZ=    28.2321
   Eigenvalues:    22.0280    28.3723    30.7500
 w=    0.000000 a.u., Optical Rotation Beta=      0.5463 au.
 Molar Mass =    116.1349 grams/mole, [Alpha]D (static) =      181.81 deg.
 End of Minotr Frequency-dependent properties file   721 does not exist.
 End of Minotr Frequency-dependent properties file   722 does not exist.
 Symmetrizing basis deriv contribution to polar:
 IMax=3 JMax=2 DiffMx= 0.00D+00
 G2DrvN: will do    18 centers at a time, making    1 passes doing MaxLOS=2.
 Calling FoFCou, ICntrl=  3107 FMM=F I1Cent=   0 AccDes= 0.00D+00.
 FoFDir/FoFCou used for L=0 through L=2.
 End of G2Drv Frequency-dependent properties file   721 does not exist.
 End of G2Drv Frequency-dependent properties file   722 does not exist.
          IDoAtm=11111111111111111
          Differentiating once with respect to electric field.
                with respect to dipole field.
          Differentiating once with respect to nuclear coordinates.
          Keep R1 ints in memory in canonical form, NReq=46823326.
          There are    54 degrees of freedom in the 1st order CPHF.  IDoFFX=5.
 Will reuse    3 saved solutions.
     48 vectors produced by pass  0 Test12= 6.14D-15 1.85D-09 XBig12= 1.64D-01 1.36D-01.
 AX will form    48 AO Fock derivatives at one time.
     48 vectors produced by pass  1 Test12= 6.14D-15 1.85D-09 XBig12= 5.34D-02 8.86D-02.
     48 vectors produced by pass  2 Test12= 6.14D-15 1.85D-09 XBig12= 1.76D-04 2.32D-03.
     48 vectors produced by pass  3 Test12= 6.14D-15 1.85D-09 XBig12= 5.75D-07 1.13D-04.
     48 vectors produced by pass  4 Test12= 6.14D-15 1.85D-09 XBig12= 1.30D-09 5.68D-06.
     32 vectors produced by pass  5 Test12= 6.14D-15 1.85D-09 XBig12= 1.23D-12 1.69D-07.
      2 vectors produced by pass  6 Test12= 6.14D-15 1.85D-09 XBig12= 1.05D-15 3.45D-09.
 Inverted reduced A of dimension   274 with in-core refinement.
 Isotropic polarizability for W=    0.000000       60.74 Bohr**3.
 Dipole-magnetic dipole polarizability for W=    0.000000:
                 1             2             3 
      1  -0.186422D+01  0.319707D+01  0.199399D+01
      2   0.218032D-01  0.691533D+00  0.299020D+02
      3   0.136928D+01 -0.326585D+02 -0.466150D+00
 DQ contribution to OR G for W=    0.000000:
                 1             2             3 
      1   0.277097D+00 -0.310160D+00 -0.305206D+00
      2   0.463325D+01  0.220453D+01  0.866671D+02
      3   0.983839D+01 -0.907683D+02 -0.248163D+01
 Optical Rotation G' tensor for W=    0.000000:
                 1             2             3 
      1   0.181966D+00 -0.264333D+00  0.350832D+00
      2  -0.264333D+00 -0.614050D+00  0.176466D+00
      3   0.350832D+00  0.176466D+00 -0.120675D+01
 OR G Eigenvalues:    -1.3654    -0.5910     0.3176  Iso=     0.5463
 Eigenvectors:
   (1)  -0.259967  -0.306511   0.915679
   (2)   0.155322   0.922662   0.352945
   (3)   0.953044  -0.233979   0.192254
 w=    0.000000 a.u., Optical Rotation Beta=      0.5463 au.
 Molar Mass =    116.1349 grams/mole, [Alpha]D (static) =      181.81 deg.
 AAT (total):
  0.0419  0.0938  0.2713
 -0.2975  0.1713 -0.0161
 -1.0580  0.7173 -0.3505
 -0.0398 -0.0398 -0.0024
  0.1022  0.0189  0.0026
  0.0085 -0.0207 -0.0114
  0.0011  0.0138  0.0013
 -0.0150  0.0072 -0.0852
  0.0799  0.0777  0.0460
 -0.0111  0.1302 -0.0998
  0.0948 -0.0010  0.0792
 -0.0403 -0.0125 -0.0320
 -0.1524  0.1220  0.2998
  0.3299  0.0283 -0.2583
  1.0693 -0.1274  0.0962
  0.0119 -0.0498 -0.5873
 -0.0121  0.0249 -0.5374
  0.3453  0.5357  0.0985
 -0.0477  0.0932  0.6412
 -0.1294 -0.0966  0.6684
 -0.8386 -1.0840  0.0792
  0.0658 -0.1111 -0.3858
  0.0904 -0.1098  0.5077
  0.2129 -0.5363  0.0373
  0.1337 -0.2731  0.0166
  0.2723 -0.0313  0.0724
 -0.0891 -0.0085  0.0109
 -0.0775  0.1286 -0.1420
 -0.1698  0.0367 -0.0548
  0.1568 -0.0367  0.0090
  0.0101  0.0735  0.0317
 -0.1058 -0.0046 -0.0584
 -0.0993  0.2405 -0.0080
  0.0224 -0.0902 -0.0537
  0.0615 -0.0311  0.0737
  0.0411 -0.0987 -0.0059
 -0.0635 -0.1676 -0.0799
  0.1374  0.0072  0.0527
  0.0715  0.0620  0.0305
  0.0274  0.1668  0.0903
 -0.1316 -0.0754 -0.0449
 -0.0291  0.0136  0.0353
  0.0554 -0.1498 -0.0460
  0.1005 -0.0068 -0.0061
  0.1665  0.0146 -0.0446
 -0.0455  0.0613  0.1172
 -0.0832  0.0044  0.0050
 -0.0851 -0.0094  0.0026
  0.0484  0.0525  0.0207
 -0.2878  0.0426 -0.0304
  0.0000 -0.0873 -0.0072
 End of Minotr Frequency-dependent properties file   721 does not exist.
 End of Minotr Frequency-dependent properties file   722 does not exist.

 **********************************************************************

            Population analysis using the SCF density.

 **********************************************************************

 Orbital symmetries:
       Occupied  (A) (A) (A) (A) (A) (A) (A) (A) (A) (A) (A) (A)
                 (A) (A) (A) (A) (A) (A) (A) (A) (A) (A) (A) (A)
                 (A) (A) (A) (A) (A) (A) (A)
       Virtual   (A) (A) (A) (A) (A) (A) (A) (A) (A) (A) (A) (A)
                 (A) (A) (A) (A) (A) (A) (A) (A) (A) (A) (A) (A)
                 (A) (A) (A) (A) (A) (A) (A) (A) (A) (A) (A) (A)
                 (A) (A) (A) (A) (A) (A) (A) (A) (A) (A) (A) (A)
                 (A) (A) (A) (A) (A) (A) (A) (A) (A) (A) (A) (A)
                 (A) (A) (A) (A) (A) (A) (A) (A) (A) (A) (A) (A)
                 (A) (A) (A) (A) (A) (A) (A) (A) (A) (A) (A) (A)
                 (A) (A) (A) (A) (A) (A) (A) (A) (A) (A) (A) (A)
                 (A) (A) (A) (A) (A) (A) (A) (A) (A) (A) (A)
 The electronic state is 1-A.
 Alpha  occ. eigenvalues --  -24.76351 -19.21745 -10.32295 -10.31582 -10.24984
 Alpha  occ. eigenvalues --  -10.24917 -10.24806 -10.24740  -1.22187  -1.07187
 Alpha  occ. eigenvalues --   -0.86901  -0.78285  -0.75322  -0.66441  -0.61799
 Alpha  occ. eigenvalues --   -0.56117  -0.53734  -0.50177  -0.49050  -0.46711
 Alpha  occ. eigenvalues --   -0.45729  -0.44345  -0.42527  -0.41265  -0.38924
 Alpha  occ. eigenvalues --   -0.38031  -0.36764  -0.35731  -0.34011  -0.32667
 Alpha  occ. eigenvalues --   -0.25438
 Alpha virt. eigenvalues --   -0.01241   0.07591   0.10452   0.12418   0.14002
 Alpha virt. eigenvalues --    0.14834   0.16294   0.17120   0.18497   0.18854
 Alpha virt. eigenvalues --    0.20825   0.21650   0.24017   0.24467   0.28849
 Alpha virt. eigenvalues --    0.32366   0.34899   0.37340   0.51318   0.53203
 Alpha virt. eigenvalues --    0.56000   0.57572   0.58984   0.60044   0.61437
 Alpha virt. eigenvalues --    0.63820   0.65319   0.68526   0.70554   0.71151
 Alpha virt. eigenvalues --    0.73593   0.75238   0.76132   0.79788   0.84032
 Alpha virt. eigenvalues --    0.85873   0.86762   0.88133   0.89654   0.90762
 Alpha virt. eigenvalues --    0.91685   0.94279   0.95623   0.96076   0.97766
 Alpha virt. eigenvalues --    0.98262   1.04694   1.10060   1.12079   1.17789
 Alpha virt. eigenvalues --    1.24327   1.29777   1.37857   1.38865   1.42932
 Alpha virt. eigenvalues --    1.43609   1.48196   1.49733   1.55052   1.62142
 Alpha virt. eigenvalues --    1.68727   1.70051   1.74328   1.75430   1.78078
 Alpha virt. eigenvalues --    1.82351   1.82449   1.87000   1.87655   1.90658
 Alpha virt. eigenvalues --    1.91611   1.94911   1.96349   1.98512   2.01382
 Alpha virt. eigenvalues --    2.02142   2.05924   2.14075   2.15620   2.17380
 Alpha virt. eigenvalues --    2.20848   2.27320   2.29876   2.32605   2.35330
 Alpha virt. eigenvalues --    2.41535   2.42596   2.46853   2.49250   2.50811
 Alpha virt. eigenvalues --    2.56400   2.62715   2.65766   2.72242   2.79477
 Alpha virt. eigenvalues --    2.83160   3.01503   3.08738   3.11851   4.01004
 Alpha virt. eigenvalues --    4.14059   4.28293   4.36146   4.46989   4.54829
 Alpha virt. eigenvalues --    4.70409   4.76246
          Condensed to atoms (all electrons):
              1          2          3          4          5          6
     1  C    5.452816   0.291175  -0.054263   0.005736  -0.131993   0.272730
     2  C    0.291175   5.153420   0.358063  -0.057594   0.005812  -0.023368
     3  C   -0.054263   0.358063   5.151522   0.279265  -0.028512  -0.008028
     4  C    0.005736  -0.057594   0.279265   5.292831   0.320775  -0.041933
     5  C   -0.131993   0.005812  -0.028512   0.320775   4.935685   0.278033
     6  C    0.272730  -0.023368  -0.008028  -0.041933   0.278033   4.657457
     7  O   -0.079096   0.003128   0.000196   0.000743  -0.067213   0.578040
     8  F    0.002497  -0.000070   0.002338  -0.033256   0.251709  -0.026594
     9  H    0.364072  -0.037241  -0.002228  -0.001267   0.002959  -0.026884
    10  H    0.359412  -0.026929   0.004140   0.000098   0.004097  -0.021526
    11  H   -0.043885   0.386620  -0.040016  -0.002515   0.002203  -0.005003
    12  H   -0.026331   0.378341  -0.031844   0.004624  -0.000224   0.002923
    13  H   -0.001356  -0.036528   0.381138  -0.031786   0.002849  -0.000239
    14  H    0.004825  -0.035360   0.382458  -0.032688  -0.000573  -0.000122
    15  H    0.003973  -0.000636  -0.030407   0.373057  -0.037981  -0.009614
    16  H   -0.000893   0.004379  -0.028830   0.379910  -0.030319   0.005111
    17  H    0.009813  -0.003571   0.003711  -0.062351   0.371229  -0.056191
              7          8          9         10         11         12
     1  C   -0.079096   0.002497   0.364072   0.359412  -0.043885  -0.026331
     2  C    0.003128  -0.000070  -0.037241  -0.026929   0.386620   0.378341
     3  C    0.000196   0.002338  -0.002228   0.004140  -0.040016  -0.031844
     4  C    0.000743  -0.033256  -0.001267   0.000098  -0.002515   0.004624
     5  C   -0.067213   0.251709   0.002959   0.004097   0.002203  -0.000224
     6  C    0.578040  -0.026594  -0.026884  -0.021526  -0.005003   0.002923
     7  O    7.998479  -0.000566  -0.001221   0.001653   0.000041  -0.000063
     8  F   -0.000566   9.134898  -0.000021  -0.000020  -0.000004  -0.000000
     9  H   -0.001221  -0.000021   0.509674  -0.020175   0.004976  -0.004636
    10  H    0.001653  -0.000020  -0.020175   0.493296  -0.002891  -0.002211
    11  H    0.000041  -0.000004   0.004976  -0.002891   0.555181  -0.031874
    12  H   -0.000063  -0.000000  -0.004636  -0.002211  -0.031874   0.532279
    13  H   -0.000001  -0.000026   0.002377  -0.000103   0.004927  -0.006839
    14  H    0.000001  -0.000020  -0.000048  -0.000130  -0.006927   0.000400
    15  H    0.000366   0.001954   0.000039  -0.000072  -0.000107  -0.000057
    16  H   -0.000067   0.001063   0.000042   0.000007   0.000014  -0.000109
    17  H   -0.000506  -0.029915   0.000084  -0.000564   0.001011   0.000087
             13         14         15         16         17
     1  C   -0.001356   0.004825   0.003973  -0.000893   0.009813
     2  C   -0.036528  -0.035360  -0.000636   0.004379  -0.003571
     3  C    0.381138   0.382458  -0.030407  -0.028830   0.003711
     4  C   -0.031786  -0.032688   0.373057   0.379910  -0.062351
     5  C    0.002849  -0.000573  -0.037981  -0.030319   0.371229
     6  C   -0.000239  -0.000122  -0.009614   0.005111  -0.056191
     7  O   -0.000001   0.000001   0.000366  -0.000067  -0.000506
     8  F   -0.000026  -0.000020   0.001954   0.001063  -0.029915
     9  H    0.002377  -0.000048   0.000039   0.000042   0.000084
    10  H   -0.000103  -0.000130  -0.000072   0.000007  -0.000564
    11  H    0.004927  -0.006927  -0.000107   0.000014   0.001011
    12  H   -0.006839   0.000400  -0.000057  -0.000109   0.000087
    13  H    0.542480  -0.031638  -0.008710   0.001681  -0.000120
    14  H   -0.031638   0.541022   0.004223  -0.008153   0.001400
    15  H   -0.008710   0.004223   0.538947  -0.032302   0.006357
    16  H    0.001681  -0.008153  -0.032302   0.517392  -0.006900
    17  H   -0.000120   0.001400   0.006357  -0.006900   0.591358
 Mulliken atomic charges:
              1
     1  C   -0.429233
     2  C   -0.359642
     3  C   -0.338703
     4  C   -0.393648
     5  C    0.121464
     6  C    0.425208
     7  O   -0.433915
     8  F   -0.303968
     9  H    0.209499
    10  H    0.211918
    11  H    0.178249
    12  H    0.185534
    13  H    0.181893
    14  H    0.181330
    15  H    0.190971
    16  H    0.197974
    17  H    0.175069
 Sum of Mulliken atomic charges =  -0.00000
 Mulliken charges with hydrogens summed into heavy atoms:
              1
     1  C   -0.007816
     2  C    0.004141
     3  C    0.024520
     4  C   -0.004704
     5  C    0.296532
     6  C    0.425208
     7  O   -0.433915
     8  F   -0.303968
 Sum of Mulliken charges with hydrogens summed into heavy atoms =  -0.00000
 APT atomic charges:
              1
     1  C   -0.071042
     2  C    0.086429
     3  C    0.101652
     4  C    0.031081
     5  C    0.449419
     6  C    0.714540
     7  O   -0.646437
     8  F   -0.483576
     9  H    0.006849
    10  H    0.003977
    11  H   -0.032250
    12  H   -0.026160
    13  H   -0.031524
    14  H   -0.034703
    15  H   -0.016599
    16  H   -0.016884
    17  H   -0.034772
 Sum of APT charges=   0.00000
 APT Atomic charges with hydrogens summed into heavy atoms:
              1
     1  C   -0.060215
     2  C    0.028019
     3  C    0.035425
     4  C   -0.002403
     5  C    0.414647
     6  C    0.714540
     7  O   -0.646437
     8  F   -0.483576
     9  H    0.000000
    10  H    0.000000
    11  H    0.000000
    12  H    0.000000
    13  H    0.000000
    14  H    0.000000
    15  H    0.000000
    16  H    0.000000
    17  H    0.000000
 Sum of APT charges=   0.00000
 Electronic spatial extent (au):  <R**2>=            924.6635
 Charge=             -0.0000 electrons
 Dipole moment (field-independent basis, Debye):
    X=              4.1286    Y=             -0.8109    Z=              0.4403  Tot=              4.2305
 Quadrupole moment (field-independent basis, Debye-Ang):
   XX=            -53.4830   YY=            -48.1626   ZZ=            -44.5086
   XY=              2.4008   XZ=             -0.8646   YZ=              0.3978
 Traceless Quadrupole moment (field-independent basis, Debye-Ang):
   XX=             -4.7649   YY=              0.5555   ZZ=              4.2095
   XY=              2.4008   XZ=             -0.8646   YZ=              0.3978
 Octapole moment (field-independent basis, Debye-Ang**2):
  XXX=             -2.5194  YYY=             -7.0439  ZZZ=              0.1390  XYY=              3.4121
  XXY=             -3.9958  XXZ=              0.3369  XZZ=             -6.5579  YZZ=             -1.1647
  YYZ=              2.0056  XYZ=             -1.8676
 Hexadecapole moment (field-independent basis, Debye-Ang**3):
 XXXX=           -603.8745 YYYY=           -420.6967 ZZZZ=            -98.9537 XXXY=             16.8360
 XXXZ=             -3.5552 YYYX=             18.2476 YYYZ=             -0.1920 ZZZX=             -2.8834
 ZZZY=             -4.0418 XXYY=           -182.8342 XXZZ=           -113.2165 YYZZ=            -87.8254
 XXYZ=              0.6329 YYXZ=             -1.1317 ZZXY=              2.7736
 N-N= 3.923344677237D+02 E-N=-1.741286346146D+03  KE= 4.054634372851D+02
  Exact polarizability:  66.693  -2.453  63.570   0.909  -0.758  51.949
 Approx polarizability:  90.853  -5.837  82.627   2.198  -2.595  75.841
 Calling FoFJK, ICntrl=    100127 FMM=F ISym2X=0 I1Cent= 0 IOpClX= 0 NMat=1 NMatS=1 NMatT=0.
 Full mass-weighted force constant matrix:
 Low frequencies ---  -18.5420   -7.8343   -0.0010   -0.0010   -0.0008   16.4174
 Low frequencies ---   49.4411  138.6914  214.5340
 Harmonic frequencies (cm**-1), IR intensities (KM/Mole), Raman scattering
 activities (A**4/AMU), depolarization ratios for plane and unpolarized
 incident light, reduced masses (AMU), force constants (mDyne/A),
 Dipole strengths (10**-40 esu**2-cm**2),
 Rotational strengths (10**-44 esu**2-cm**2),
 and normal coordinates:
                     1                      2                      3
                     A                      A                      A
 Frequencies --    48.7797               138.6673               214.4863
 Red. masses --     2.9586                 2.2614                 2.1499
 Frc consts  --     0.0041                 0.0256                 0.0583
 IR Inten    --     2.1948                 0.1065                 2.4793
 Raman Activ --     0.3267                 0.1145                 0.1651
 Depolar (P) --     0.7496                 0.7467                 0.6865
 Depolar (U) --     0.8569                 0.8550                 0.8141
 Dip. str.   --   179.4983                 3.0648                46.1144
 Rot. str.   --     4.9865                 2.1664                 3.4726
  Atom  AN      X      Y      Z        X      Y      Z        X      Y      Z
     1   6    -0.01  -0.05  -0.19    -0.00  -0.00  -0.03     0.03  -0.05  -0.11
     2   6     0.00   0.06  -0.06    -0.01   0.01  -0.01    -0.13  -0.05   0.16
     3   6     0.01  -0.05   0.18     0.03   0.05  -0.09     0.01   0.05  -0.04
     4   6     0.03   0.02  -0.02     0.02  -0.12   0.20     0.02  -0.00  -0.07
     5   6    -0.01  -0.02  -0.04    -0.03   0.01   0.01     0.03   0.01  -0.06
     6   6    -0.01   0.00   0.02     0.01   0.01   0.00     0.00   0.02  -0.07
     7   8    -0.02   0.05   0.23     0.00   0.04   0.09     0.01   0.06   0.05
     8   9    -0.00  -0.01  -0.11    -0.01   0.02  -0.14     0.02  -0.02   0.09
     9   1    -0.07  -0.29  -0.23     0.00  -0.05  -0.03     0.16  -0.31  -0.12
    10   1     0.03   0.04  -0.41     0.00   0.02  -0.07     0.04   0.04  -0.33
    11   1     0.01   0.24  -0.05    -0.05  -0.05  -0.02    -0.46  -0.16   0.12
    12   1    -0.00   0.04  -0.14    -0.01   0.02   0.04    -0.08  -0.04   0.50
    13   1     0.19  -0.27   0.30    -0.20   0.22  -0.23    -0.02   0.28  -0.06
    14   1    -0.19   0.03   0.40     0.30   0.07  -0.28     0.09  -0.03  -0.17
    15   1     0.15   0.12  -0.03    -0.07  -0.46   0.18     0.03  -0.04  -0.07
    16   1    -0.01  -0.00  -0.12     0.11  -0.07   0.52     0.03   0.00  -0.03
    17   1    -0.05  -0.05  -0.03    -0.18   0.07   0.05     0.11   0.06  -0.07
                     4                      5                      6
                     A                      A                      A
 Frequencies --   289.0963               325.4334               392.9732
 Red. masses --     8.2085                 2.8206                 5.6186
 Frc consts  --     0.4042                 0.1760                 0.5112
 IR Inten    --     0.9595                 3.6944                 3.1732
 Raman Activ --     0.3923                 0.4820                 0.3205
 Depolar (P) --     0.5523                 0.6776                 0.4138
 Depolar (U) --     0.7116                 0.8078                 0.5854
 Dip. str.   --    13.2408                45.2892                32.2138
 Rot. str.   --     7.7558               -19.6463               -13.8505
  Atom  AN      X      Y      Z        X      Y      Z        X      Y      Z
     1   6    -0.02   0.00   0.09     0.03  -0.11  -0.06     0.02  -0.03   0.03
     2   6     0.04  -0.05  -0.07     0.06   0.01   0.03     0.12   0.20   0.04
     3   6    -0.01  -0.08   0.02     0.00   0.07  -0.06    -0.00   0.19   0.03
     4   6    -0.02   0.01   0.06    -0.05   0.18   0.04     0.03  -0.08  -0.08
     5   6    -0.09   0.09  -0.10    -0.07  -0.01   0.19    -0.13  -0.19  -0.13
     6   6    -0.12   0.12  -0.10    -0.00  -0.01   0.14     0.08  -0.15  -0.04
     7   8     0.04   0.42  -0.03     0.06   0.02  -0.09     0.21   0.07   0.01
     8   9     0.09  -0.43   0.05    -0.01  -0.09  -0.07    -0.28  -0.04   0.10
     9   1    -0.00   0.24   0.13    -0.07  -0.46  -0.11     0.04  -0.08   0.02
    10   1    -0.00  -0.08   0.30     0.09   0.02  -0.38    -0.22   0.01  -0.06
    11   1     0.23  -0.01  -0.04     0.04  -0.01   0.02     0.29   0.29   0.07
    12   1     0.01  -0.03  -0.24     0.05   0.03   0.03     0.09   0.18  -0.19
    13   1     0.00  -0.19   0.03    -0.12   0.15  -0.13    -0.04   0.27   0.01
    14   1    -0.06  -0.05   0.08     0.06  -0.03  -0.20     0.07   0.17  -0.04
    15   1     0.02  -0.15   0.03    -0.16   0.41   0.10     0.13  -0.19  -0.11
    16   1    -0.12   0.05   0.23    -0.05   0.13  -0.21     0.30  -0.10  -0.04
    17   1    -0.03   0.32  -0.08    -0.19  -0.15   0.20    -0.05  -0.20  -0.15
                     7                      8                      9
                     A                      A                      A
 Frequencies --   452.6504               530.8462               551.5448
 Red. masses --     4.6225                 3.2268                 2.2059
 Frc consts  --     0.5580                 0.5358                 0.3954
 IR Inten    --     4.2497                 6.9276                 3.2618
 Raman Activ --     3.0420                 1.9805                 2.1090
 Depolar (P) --     0.5940                 0.7190                 0.6297
 Depolar (U) --     0.7453                 0.8365                 0.7728
 Dip. str.   --    37.4548                52.0620                23.5931
 Rot. str.   --   -18.5569                -5.5949               -40.3225
  Atom  AN      X      Y      Z        X      Y      Z        X      Y      Z
     1   6    -0.07  -0.22   0.08     0.17   0.02   0.02    -0.08  -0.03   0.09
     2   6     0.14  -0.09   0.03     0.18   0.02   0.11    -0.03   0.04   0.03
     3   6     0.27  -0.05  -0.02    -0.12   0.04   0.02    -0.10   0.01   0.01
     4   6     0.17   0.07   0.00    -0.12   0.05   0.00    -0.03  -0.11  -0.08
     5   6    -0.05   0.07  -0.09    -0.04   0.10  -0.11     0.08  -0.02  -0.05
     6   6    -0.19   0.01  -0.00     0.02   0.04  -0.10    -0.02   0.04   0.15
     7   8    -0.17   0.05  -0.03    -0.13  -0.14   0.06     0.02   0.05  -0.07
     8   9    -0.09   0.10   0.05     0.01  -0.06   0.00     0.09   0.04  -0.01
     9   1    -0.09  -0.40   0.05     0.32  -0.25   0.01    -0.23  -0.52  -0.01
    10   1     0.05  -0.13  -0.12     0.19   0.13  -0.23     0.06   0.16  -0.37
    11   1     0.34  -0.12   0.05     0.42   0.14   0.15     0.26   0.13   0.07
    12   1     0.00   0.16  -0.16     0.20  -0.12  -0.19    -0.06   0.01  -0.28
    13   1     0.18   0.04  -0.08    -0.20   0.14  -0.03    -0.03   0.07   0.05
    14   1     0.32  -0.11  -0.12    -0.09  -0.10  -0.14    -0.10   0.00   0.00
    15   1     0.29   0.00  -0.04    -0.10  -0.11  -0.02    -0.03  -0.33  -0.09
    16   1     0.11   0.08   0.04    -0.12   0.08   0.17    -0.01  -0.07   0.17
    17   1     0.00   0.14  -0.09     0.01   0.23  -0.11     0.22  -0.14  -0.09
                    10                     11                     12
                     A                      A                      A
 Frequencies --   635.0565               758.5116               825.6378
 Red. masses --     3.2904                 1.8232                 2.1019
 Frc consts  --     0.7818                 0.6180                 0.8442
 IR Inten    --     5.0381                 1.1888                10.6932
 Raman Activ --     6.0588                 4.3675                 3.3872
 Depolar (P) --     0.1157                 0.0890                 0.0768
 Depolar (U) --     0.2074                 0.1635                 0.1427
 Dip. str.   --    31.6490                 6.2523                51.6685
 Rot. str.   --     8.5490                -2.4142                40.2062
  Atom  AN      X      Y      Z        X      Y      Z        X      Y      Z
     1   6     0.13   0.20  -0.03    -0.03  -0.07   0.03     0.04  -0.03  -0.01
     2   6     0.02  -0.01  -0.04    -0.01  -0.00  -0.05     0.12   0.05   0.05
     3   6     0.09  -0.04  -0.03     0.01   0.05  -0.05    -0.01   0.06  -0.08
     4   6     0.06  -0.07  -0.03    -0.03   0.12  -0.00    -0.03  -0.05  -0.06
     5   6    -0.05  -0.04  -0.02    -0.04   0.11  -0.09     0.03  -0.10   0.13
     6   6     0.01   0.18   0.20     0.05  -0.05   0.06    -0.09  -0.02  -0.07
     7   8    -0.08  -0.03  -0.06     0.07  -0.07   0.01    -0.08   0.08  -0.01
     8   9    -0.12  -0.08   0.02    -0.00  -0.02   0.01     0.03   0.03  -0.02
     9   1    -0.09  -0.06  -0.10    -0.17  -0.08   0.01     0.22   0.05   0.03
    10   1     0.46   0.28  -0.21    -0.06  -0.07   0.02    -0.11  -0.04   0.02
    11   1    -0.28  -0.15  -0.09    -0.22  -0.20  -0.09    -0.04  -0.17   0.02
    12   1     0.12  -0.09   0.32    -0.01   0.10   0.24     0.14   0.08   0.26
    13   1     0.19  -0.17   0.03     0.23  -0.28   0.09     0.31  -0.29   0.12
    14   1     0.01   0.04   0.12    -0.31   0.09   0.23    -0.43   0.05   0.23
    15   1     0.11  -0.19  -0.06    -0.09  -0.34  -0.04    -0.34  -0.22  -0.00
    16   1     0.09  -0.05   0.08     0.02   0.21   0.47     0.25  -0.04   0.11
    17   1    -0.06  -0.26  -0.04     0.03   0.12  -0.10     0.02  -0.15   0.13
                    13                     14                     15
                     A                      A                      A
 Frequencies --   853.9901               886.4009               952.0365
 Red. masses --     1.8323                 2.1415                 1.7504
 Frc consts  --     0.7873                 0.9913                 0.9347
 IR Inten    --     1.8089                 4.5822                16.3486
 Raman Activ --     1.8366                 4.6049                 2.2500
 Depolar (P) --     0.3029                 0.1148                 0.4566
 Depolar (U) --     0.4649                 0.2060                 0.6270
 Dip. str.   --     8.4501                20.6228                68.5069
 Rot. str.   --    -8.6661               -24.3241                19.0960
  Atom  AN      X      Y      Z        X      Y      Z        X      Y      Z
     1   6    -0.07   0.11   0.10    -0.06   0.03  -0.08     0.00   0.01   0.04
     2   6    -0.01   0.06   0.03     0.13   0.11   0.08     0.12   0.00  -0.07
     3   6     0.08  -0.08  -0.09     0.10  -0.13   0.03    -0.10   0.04   0.03
     4   6    -0.02  -0.05   0.03    -0.12  -0.03  -0.05     0.02  -0.01   0.09
     5   6    -0.01   0.03   0.02    -0.01   0.04  -0.02     0.01  -0.05  -0.10
     6   6     0.05  -0.02  -0.10    -0.02  -0.04   0.06    -0.05  -0.06   0.01
     7   8     0.04  -0.02   0.02     0.01   0.00  -0.01    -0.01   0.03  -0.01
     8   9    -0.02  -0.01  -0.00     0.02   0.00  -0.01     0.04   0.03   0.01
     9   1     0.01  -0.40   0.05    -0.22   0.25  -0.08    -0.31  -0.10  -0.02
    10   1    -0.17   0.32  -0.39    -0.34  -0.03   0.07    -0.03   0.07  -0.10
    11   1     0.11  -0.21   0.03    -0.19   0.18   0.04    -0.29  -0.25  -0.13
    12   1    -0.06   0.17   0.04     0.15   0.17   0.34     0.27  -0.18   0.42
    13   1     0.15  -0.30  -0.04    -0.08   0.06  -0.09    -0.33  -0.15  -0.10
    14   1    -0.04   0.02   0.10     0.20  -0.30  -0.21     0.05   0.13   0.01
    15   1    -0.12   0.23   0.08    -0.07  -0.10  -0.07     0.22   0.27   0.07
    16   1    -0.12  -0.10  -0.24    -0.42   0.02   0.11     0.05  -0.08  -0.23
    17   1    -0.16   0.28   0.07     0.12  -0.10  -0.06     0.01   0.12  -0.08
                    16                     17                     18
                     A                      A                      A
 Frequencies --   991.6697              1065.0168              1109.5523
 Red. masses --     2.1850                 1.5518                 2.1478
 Frc consts  --     1.2660                 1.0370                 1.5579
 IR Inten    --     5.0678                 1.4618                11.6872
 Raman Activ --     4.8164                 2.0197                 3.6882
 Depolar (P) --     0.7340                 0.6207                 0.6824
 Depolar (U) --     0.8466                 0.7660                 0.8112
 Dip. str.   --    20.3875                 5.4757                42.0215
 Rot. str.   --    -4.6449                 0.0344                14.9663
  Atom  AN      X      Y      Z        X      Y      Z        X      Y      Z
     1   6    -0.09   0.15  -0.05    -0.04   0.00  -0.05    -0.01  -0.09  -0.06
     2   6     0.03  -0.09   0.06     0.05  -0.05   0.04     0.00   0.11   0.08
     3   6    -0.06  -0.09  -0.01    -0.03   0.03  -0.02    -0.11  -0.09  -0.10
     4   6     0.11   0.16   0.02     0.07  -0.09  -0.06     0.11  -0.01   0.08
     5   6     0.03  -0.06   0.02    -0.05   0.11   0.04     0.03   0.01  -0.07
     6   6    -0.02  -0.05  -0.03     0.02   0.01   0.04     0.04   0.10   0.07
     7   8     0.02   0.02   0.00     0.01  -0.02  -0.00    -0.01  -0.01  -0.01
     8   9    -0.03   0.01   0.00    -0.01  -0.01  -0.00    -0.02  -0.01   0.01
     9   1    -0.05   0.02  -0.06    -0.37   0.13  -0.08     0.18   0.16   0.01
    10   1    -0.35   0.22  -0.19    -0.18  -0.03   0.04    -0.10  -0.17   0.14
    11   1     0.19  -0.06   0.08     0.02   0.13   0.05     0.01   0.09   0.08
    12   1     0.13  -0.35  -0.10     0.17  -0.34  -0.00    -0.16   0.44   0.01
    13   1    -0.11  -0.04  -0.04     0.23   0.22   0.14    -0.20  -0.38  -0.15
    14   1    -0.15  -0.30  -0.15    -0.15  -0.05  -0.00    -0.31  -0.25  -0.11
    15   1     0.09  -0.21  -0.01    -0.10   0.02  -0.01     0.14   0.15   0.09
    16   1     0.28   0.21   0.32     0.25  -0.13  -0.19     0.29  -0.07  -0.16
    17   1     0.09  -0.23  -0.01    -0.25   0.50   0.12    -0.07   0.04  -0.04
                    19                     20                     21
                     A                      A                      A
 Frequencies --  1123.9692              1153.0059              1163.8930
 Red. masses --     1.2806                 4.1248                 2.6510
 Frc consts  --     0.9532                 3.2308                 2.1158
 IR Inten    --     1.6191               107.0964                 1.3560
 Raman Activ --     2.1791                 1.8352                 2.3946
 Depolar (P) --     0.7288                 0.7443                 0.6881
 Depolar (U) --     0.8431                 0.8534                 0.8153
 Dip. str.   --     5.7468               370.5533                 4.6480
 Rot. str.   --    -3.6590                60.6606                 3.7399
  Atom  AN      X      Y      Z        X      Y      Z        X      Y      Z
     1   6     0.00   0.01  -0.07    -0.17  -0.09   0.00    -0.05   0.04  -0.09
     2   6    -0.01  -0.03   0.04     0.12  -0.11  -0.01     0.00  -0.11   0.09
     3   6     0.00   0.05  -0.05    -0.01   0.11   0.08     0.11   0.09  -0.04
     4   6     0.00  -0.04   0.03    -0.07  -0.03   0.00    -0.12   0.03   0.14
     5   6    -0.03   0.05  -0.03     0.23   0.05   0.06     0.01  -0.15  -0.18
     6   6    -0.02  -0.01   0.08     0.17   0.24  -0.11     0.01   0.03   0.04
     7   8     0.00  -0.00  -0.01    -0.02  -0.02   0.01     0.01   0.00  -0.01
     8   9     0.01  -0.00   0.00    -0.13  -0.07  -0.03     0.04   0.02   0.03
     9   1     0.37   0.09   0.01    -0.35   0.04  -0.01    -0.27   0.18  -0.10
    10   1    -0.46  -0.02  -0.01    -0.33  -0.07  -0.04     0.23  -0.03   0.09
    11   1     0.23  -0.26   0.06     0.05  -0.40  -0.03     0.22   0.04   0.12
    12   1     0.07  -0.24  -0.11     0.02   0.15   0.13    -0.08  -0.01  -0.18
    13   1     0.08  -0.13   0.00    -0.13   0.01   0.01     0.28   0.00   0.08
    14   1     0.09   0.36   0.19     0.07   0.13   0.05    -0.25  -0.10   0.05
    15   1     0.26   0.10  -0.02    -0.04   0.05   0.01    -0.48   0.25   0.25
    16   1    -0.35  -0.03  -0.04    -0.01  -0.03  -0.01     0.05  -0.04  -0.13
    17   1     0.06  -0.17  -0.06     0.34  -0.35  -0.01    -0.12  -0.01  -0.14
                    22                     23                     24
                     A                      A                      A
 Frequencies --  1185.3027              1242.1767              1271.0065
 Red. masses --     2.2999                 1.5359                 1.3675
 Frc consts  --     1.9038                 1.3963                 1.3016
 IR Inten    --    24.1536                 1.3557                 3.1045
 Raman Activ --     4.7037                 1.3398                 6.5262
 Depolar (P) --     0.7461                 0.7496                 0.7500
 Depolar (U) --     0.8546                 0.8569                 0.8571
 Dip. str.   --    81.2943                 4.3541                 9.7443
 Rot. str.   --   -40.6420                 1.9317               -12.8392
  Atom  AN      X      Y      Z        X      Y      Z        X      Y      Z
     1   6     0.06  -0.01   0.02     0.02  -0.05   0.05    -0.06   0.05  -0.05
     2   6    -0.04   0.06   0.02    -0.00   0.03   0.03     0.04  -0.04   0.06
     3   6    -0.02  -0.01  -0.08    -0.02  -0.02  -0.10    -0.03   0.06  -0.02
     4   6     0.06   0.01   0.06     0.03   0.01   0.05     0.02  -0.04  -0.01
     5   6     0.23   0.02  -0.01    -0.08  -0.01   0.01    -0.02   0.03   0.06
     6   6    -0.08  -0.09   0.02     0.06   0.06  -0.10    -0.03  -0.06  -0.03
     7   8    -0.01   0.02  -0.01    -0.02  -0.00   0.01     0.03  -0.00   0.01
     8   9    -0.12  -0.03  -0.03     0.04   0.01   0.02    -0.00  -0.00  -0.01
     9   1    -0.14  -0.03  -0.01    -0.45  -0.02  -0.02    -0.20   0.09  -0.07
    10   1     0.17  -0.03   0.06    -0.03  -0.02  -0.01     0.59  -0.00   0.07
    11   1    -0.10   0.34   0.03    -0.14   0.37   0.03     0.18  -0.22   0.07
    12   1     0.13  -0.32  -0.01     0.10  -0.21  -0.03    -0.13   0.32   0.00
    13   1     0.18   0.05   0.05     0.24   0.07   0.06    -0.01  -0.09  -0.00
    14   1    -0.13   0.04   0.06    -0.10   0.07   0.06    -0.18  -0.06  -0.03
    15   1    -0.18   0.18   0.14     0.29   0.02  -0.01     0.46  -0.02  -0.11
    16   1    -0.51   0.06   0.09    -0.26   0.02   0.02    -0.29  -0.00   0.04
    17   1     0.35   0.24  -0.02    -0.12  -0.54  -0.02     0.09   0.02   0.03
                    25                     26                     27
                     A                      A                      A
 Frequencies --  1299.3761              1331.4295              1358.9786
 Red. masses --     1.2054                 1.2731                 1.4594
 Frc consts  --     1.1991                 1.3297                 1.5880
 IR Inten    --     0.7994                 0.8084                 1.7795
 Raman Activ --    14.1460                 2.9683                 2.8066
 Depolar (P) --     0.7094                 0.7473                 0.7198
 Depolar (U) --     0.8300                 0.8554                 0.8371
 Dip. str.   --     2.4545                 2.4221                 5.2238
 Rot. str.   --   -13.3215                 0.0719                -3.1267
  Atom  AN      X      Y      Z        X      Y      Z        X      Y      Z
     1   6    -0.03   0.01   0.02    -0.02  -0.02  -0.02     0.17   0.01   0.00
     2   6     0.04  -0.01  -0.08    -0.00   0.04   0.04    -0.03  -0.05   0.00
     3   6    -0.03   0.02   0.03    -0.02  -0.01   0.02    -0.01  -0.00   0.00
     4   6     0.06  -0.03   0.02     0.08   0.02  -0.07    -0.02   0.02  -0.01
     5   6     0.01  -0.01  -0.03     0.04  -0.05  -0.02     0.03  -0.08   0.01
     6   6     0.00   0.01   0.01     0.02   0.02  -0.01    -0.00   0.00   0.01
     7   8    -0.00   0.00  -0.00    -0.00  -0.00   0.00    -0.03   0.01  -0.01
     8   9     0.00   0.00   0.01     0.01   0.01   0.02    -0.00   0.01  -0.00
     9   1     0.32  -0.05   0.06    -0.11   0.06  -0.02    -0.45   0.05  -0.09
    10   1    -0.09   0.04  -0.06     0.16  -0.05   0.05    -0.51   0.04  -0.07
    11   1    -0.09  -0.16  -0.11     0.10  -0.19   0.04     0.10  -0.14   0.01
    12   1    -0.02   0.16   0.06     0.06  -0.11  -0.02    -0.26   0.42  -0.08
    13   1     0.23   0.44   0.18    -0.21  -0.20  -0.09     0.02   0.11   0.03
    14   1    -0.30  -0.36  -0.16     0.20   0.21   0.07    -0.03   0.01   0.02
    15   1    -0.05   0.08   0.06    -0.30  -0.08  -0.00     0.20  -0.05  -0.07
    16   1    -0.37   0.02   0.05    -0.35   0.11   0.16    -0.15   0.05   0.09
    17   1    -0.30  -0.13   0.02    -0.64   0.05   0.12    -0.09   0.31   0.07
                    28                     29                     30
                     A                      A                      A
 Frequencies --  1377.2940              1385.9198              1398.3630
 Red. masses --     1.5249                 1.4231                 1.4663
 Frc consts  --     1.7042                 1.6105                 1.6894
 IR Inten    --     4.4610                 0.3323                 2.0654
 Raman Activ --     6.1326                 2.8048                 1.8260
 Depolar (P) --     0.7464                 0.7489                 0.7473
 Depolar (U) --     0.8548                 0.8564                 0.8554
 Dip. str.   --    12.9215                 0.9566                 5.8923
 Rot. str.   --   -32.4918                -2.2464                -1.2924
  Atom  AN      X      Y      Z        X      Y      Z        X      Y      Z
     1   6     0.09   0.02  -0.01     0.03  -0.01   0.02     0.01  -0.05  -0.02
     2   6    -0.03   0.00   0.01    -0.06   0.01  -0.01    -0.07   0.16  -0.01
     3   6    -0.01   0.01   0.04     0.11   0.13   0.04     0.01  -0.05   0.01
     4   6     0.10  -0.05  -0.00    -0.01  -0.04  -0.02    -0.02   0.02   0.03
     5   6    -0.05   0.13  -0.02     0.01   0.01   0.02    -0.03  -0.04   0.01
     6   6    -0.03  -0.06  -0.02     0.01   0.01  -0.00     0.02   0.04  -0.01
     7   8    -0.00   0.01   0.00    -0.01   0.00   0.00    -0.01  -0.00   0.00
     8   9     0.00  -0.00   0.00     0.00  -0.00  -0.00     0.00   0.00  -0.01
     9   1    -0.31  -0.00  -0.07    -0.04  -0.08   0.00    -0.16   0.07  -0.03
    10   1    -0.07   0.01   0.01    -0.15  -0.02   0.03     0.12  -0.08   0.05
    11   1     0.13  -0.26   0.01    -0.02   0.08  -0.01     0.29  -0.67  -0.00
    12   1    -0.11   0.17  -0.05     0.07  -0.31  -0.07     0.17  -0.34  -0.00
    13   1    -0.13  -0.06  -0.02    -0.30  -0.45  -0.20     0.14   0.27   0.08
    14   1     0.01  -0.07  -0.04    -0.35  -0.50  -0.23    -0.08  -0.18  -0.05
    15   1    -0.56   0.13   0.17     0.15  -0.03  -0.06     0.09  -0.04  -0.01
    16   1     0.03  -0.06  -0.09    -0.14  -0.03  -0.00     0.07  -0.00  -0.04
    17   1     0.19  -0.51  -0.12    -0.09   0.02   0.04     0.23   0.12  -0.03
                    31                     32                     33
                     A                      A                      A
 Frequencies --  1424.4181              1471.0263              1513.9402
 Red. masses --     1.7262                 1.0854                 1.0701
 Frc consts  --     2.0635                 1.3839                 1.4450
 IR Inten    --     5.6558                12.1484                 0.7814
 Raman Activ --     3.4051                13.3028                18.7060
 Depolar (P) --     0.7500                 0.6887                 0.7497
 Depolar (U) --     0.8571                 0.8157                 0.8570
 Dip. str.   --    15.8402                32.9462                 2.0591
 Rot. str.   --    15.6530                 6.8149                -1.5115
  Atom  AN      X      Y      Z        X      Y      Z        X      Y      Z
     1   6     0.04   0.01  -0.00     0.00  -0.07   0.04    -0.00   0.00  -0.00
     2   6    -0.02   0.03   0.00    -0.01  -0.00   0.00    -0.02  -0.02  -0.02
     3   6     0.02  -0.03  -0.01     0.01   0.00   0.00     0.05  -0.03  -0.01
     4   6    -0.12  -0.01   0.01    -0.00  -0.01  -0.00     0.01   0.02   0.02
     5   6     0.15   0.11  -0.03     0.00   0.01  -0.00     0.01   0.01   0.00
     6   6    -0.06  -0.08   0.00    -0.01  -0.01   0.01    -0.00  -0.00   0.00
     7   8     0.00   0.01  -0.00     0.00  -0.00   0.00     0.00  -0.00   0.00
     8   9    -0.02  -0.01   0.02    -0.00  -0.00  -0.00    -0.00  -0.00   0.00
     9   1    -0.08  -0.03  -0.03     0.02   0.68   0.12     0.01  -0.01  -0.00
    10   1     0.04  -0.01   0.04     0.10   0.25  -0.65    -0.00  -0.01   0.01
    11   1     0.06  -0.11   0.01    -0.03   0.00   0.00     0.28   0.14   0.03
    12   1     0.01  -0.04  -0.04    -0.02  -0.02  -0.04     0.03   0.03   0.30
    13   1     0.08   0.11   0.03    -0.06   0.00  -0.04    -0.36   0.33  -0.25
    14   1     0.00  -0.01   0.02    -0.05  -0.01   0.03    -0.36   0.10   0.40
    15   1     0.33   0.04  -0.08     0.00   0.05   0.00    -0.03  -0.32  -0.02
    16   1     0.44  -0.05  -0.02     0.03   0.00   0.04    -0.08  -0.05  -0.30
    17   1    -0.65  -0.39   0.08    -0.00  -0.01  -0.00    -0.03  -0.03   0.01
                    34                     35                     36
                     A                      A                      A
 Frequencies --  1528.2178              1542.4040              1875.5481
 Red. masses --     1.0853                 1.1007                12.6912
 Frc consts  --     1.4933                 1.5429                26.3033
 IR Inten    --     8.7382                 3.8939               182.1272
 Raman Activ --     5.9591                 8.2902                12.4578
 Depolar (P) --     0.7311                 0.5899                 0.4008
 Depolar (U) --     0.8447                 0.7420                 0.5722
 Dip. str.   --    22.8111                10.0714               387.3948
 Rot. str.   --    -2.5822                -1.9213                10.8247
  Atom  AN      X      Y      Z        X      Y      Z        X      Y      Z
     1   6    -0.00  -0.01  -0.00     0.01  -0.01   0.00    -0.06   0.02  -0.01
     2   6    -0.05  -0.01  -0.05    -0.02  -0.01  -0.02    -0.01  -0.00   0.00
     3   6    -0.02   0.00  -0.00    -0.04   0.03   0.01     0.00  -0.00  -0.00
     4   6    -0.00  -0.03  -0.02     0.00   0.05   0.04    -0.01   0.01   0.00
     5   6    -0.01  -0.01  -0.00     0.02   0.01  -0.00    -0.01   0.04  -0.01
     6   6     0.01   0.01  -0.00    -0.01  -0.01   0.00     0.68  -0.42   0.13
     7   8    -0.00  -0.00   0.00     0.00   0.00  -0.00    -0.45   0.28  -0.09
     8   9     0.00   0.00   0.00    -0.00  -0.00   0.00    -0.01  -0.01  -0.00
     9   1    -0.01   0.01  -0.00    -0.00   0.08   0.01     0.05   0.02   0.01
    10   1    -0.01  -0.01  -0.01    -0.00   0.03  -0.07     0.17   0.01  -0.02
    11   1     0.55   0.23   0.06     0.20   0.08   0.02     0.02  -0.01   0.01
    12   1     0.05   0.02   0.59     0.00   0.02   0.21    -0.02  -0.01   0.01
    13   1     0.08  -0.07   0.05     0.28  -0.26   0.20     0.01  -0.00   0.01
    14   1     0.08  -0.03  -0.10     0.27  -0.08  -0.31     0.01  -0.00  -0.01
    15   1     0.03   0.36   0.02    -0.04  -0.52  -0.03     0.03  -0.03  -0.01
    16   1     0.07   0.05   0.34    -0.12  -0.07  -0.49     0.00   0.02  -0.02
    17   1    -0.01  -0.01  -0.01    -0.05  -0.02   0.01     0.00   0.06   0.00
                    37                     38                     39
                     A                      A                      A
 Frequencies --  3036.8115              3061.0694              3072.6699
 Red. masses --     1.0821                 1.0698                 1.0652
 Frc consts  --     5.8795                 5.9060                 5.9255
 IR Inten    --    13.1435                 3.5408                27.0559
 Raman Activ --    58.5818               125.4497                36.7132
 Depolar (P) --     0.2638                 0.1348                 0.3560
 Depolar (U) --     0.4175                 0.2375                 0.5251
 Dip. str.   --    17.2664                 4.6146                35.1280
 Rot. str.   --    10.6456                -9.1686                10.1977
  Atom  AN      X      Y      Z        X      Y      Z        X      Y      Z
     1   6     0.00   0.00  -0.00     0.01   0.03  -0.06     0.00   0.02  -0.02
     2   6     0.00   0.00   0.01     0.00  -0.00   0.03    -0.02  -0.01  -0.06
     3   6     0.00  -0.00  -0.00    -0.00   0.00  -0.00     0.01  -0.01   0.01
     4   6     0.00  -0.00   0.01     0.00   0.00   0.00     0.00   0.00   0.00
     5   6    -0.01   0.01  -0.08     0.00  -0.00   0.01    -0.00   0.00  -0.01
     6   6    -0.00  -0.00  -0.00    -0.00  -0.00  -0.00     0.00   0.00  -0.00
     7   8     0.00  -0.00  -0.00    -0.00   0.00   0.00    -0.00  -0.00   0.00
     8   9    -0.00  -0.00   0.00     0.00   0.00  -0.00    -0.00  -0.00   0.00
     9   1    -0.00  -0.00   0.02    -0.14  -0.10   0.86    -0.05  -0.03   0.30
    10   1     0.00  -0.00  -0.00     0.01  -0.26  -0.13    -0.00  -0.19  -0.09
    11   1     0.02   0.01  -0.14     0.05   0.02  -0.35    -0.12  -0.05   0.79
    12   1    -0.02  -0.01   0.01    -0.05  -0.02   0.02     0.37   0.17  -0.08
    13   1    -0.01   0.00   0.02    -0.01   0.00   0.02    -0.00  -0.00   0.01
    14   1     0.01  -0.01   0.01     0.02  -0.02   0.03    -0.08   0.10  -0.11
    15   1    -0.03   0.02  -0.12    -0.01   0.01  -0.04    -0.01   0.01  -0.04
    16   1     0.00   0.01   0.00    -0.00  -0.01   0.00    -0.00  -0.02   0.01
    17   1     0.19  -0.09   0.96    -0.02   0.01  -0.08     0.02  -0.01   0.11
                    40                     41                     42
                     A                      A                      A
 Frequencies --  3082.0896              3090.1718              3120.2663
 Red. masses --     1.0628                 1.0651                 1.0990
 Frc consts  --     5.9480                 5.9927                 6.3045
 IR Inten    --    23.5224                25.2030                16.1401
 Raman Activ --    25.3254               145.7573                60.2152
 Depolar (P) --     0.7411                 0.0721                 0.5427
 Depolar (U) --     0.8513                 0.1345                 0.7036
 Dip. str.   --    30.4470                32.5370                20.6359
 Rot. str.   --    -7.3922                40.7376               -34.4446
  Atom  AN      X      Y      Z        X      Y      Z        X      Y      Z
     1   6    -0.00  -0.00   0.00     0.00   0.00   0.00    -0.00  -0.00   0.00
     2   6    -0.00  -0.00   0.01     0.01   0.00  -0.01    -0.05  -0.02   0.02
     3   6     0.04  -0.02  -0.02    -0.04   0.03   0.01    -0.00   0.03  -0.06
     4   6     0.01   0.03   0.04     0.01   0.02   0.04     0.00  -0.03   0.01
     5   6     0.00  -0.00   0.01     0.00  -0.00   0.00     0.00  -0.00   0.00
     6   6     0.00  -0.00   0.00     0.00  -0.00   0.00     0.00   0.00   0.00
     7   8    -0.00   0.00  -0.00    -0.00   0.00  -0.00    -0.00   0.00  -0.00
     8   9    -0.00  -0.00  -0.00    -0.00  -0.00  -0.00     0.00   0.00  -0.00
     9   1     0.01   0.01  -0.07     0.00   0.00  -0.01     0.01   0.01  -0.06
    10   1     0.00   0.04   0.02    -0.00  -0.01  -0.01    -0.00   0.03   0.01
    11   1     0.01   0.01  -0.09    -0.01  -0.01   0.12     0.02   0.01  -0.17
    12   1     0.03   0.01  -0.00    -0.07  -0.03   0.01     0.58   0.27  -0.09
    13   1    -0.27   0.00   0.46     0.25   0.00  -0.42    -0.21   0.01   0.34
    14   1    -0.17   0.23  -0.25     0.25  -0.34   0.36     0.25  -0.33   0.33
    15   1    -0.14   0.08  -0.60    -0.13   0.08  -0.57    -0.02   0.01  -0.08
    16   1    -0.02  -0.38   0.09    -0.02  -0.26   0.07     0.02   0.29  -0.06
    17   1    -0.02   0.01  -0.09    -0.01   0.00  -0.05    -0.01   0.00  -0.03
                    43                     44                     45
                     A                      A                      A
 Frequencies --  3131.2437              3134.0986              3145.8429
 Red. masses --     1.1006                 1.0961                 1.1039
 Frc consts  --     6.3581                 6.3436                 6.4363
 IR Inten    --    16.4151                10.7806                34.7196
 Raman Activ --   125.2471                59.4812                92.3286
 Depolar (P) --     0.3359                 0.4777                 0.6117
 Depolar (U) --     0.5029                 0.6465                 0.7591
 Dip. str.   --    20.9139                13.7226                44.0297
 Rot. str.   --   -24.4745                -7.4863                25.5019
  Atom  AN      X      Y      Z        X      Y      Z        X      Y      Z
     1   6    -0.00  -0.01  -0.01     0.00  -0.07  -0.06    -0.00   0.01   0.01
     2   6    -0.05  -0.02   0.03     0.01   0.00  -0.01    -0.01  -0.01   0.01
     3   6    -0.01  -0.01   0.04     0.00   0.00  -0.00     0.00  -0.02   0.05
     4   6     0.00   0.04  -0.02     0.00  -0.01   0.01     0.00  -0.06   0.05
     5   6     0.00   0.00  -0.00    -0.00   0.00  -0.00     0.00  -0.00   0.01
     6   6     0.00  -0.00   0.00     0.00  -0.00  -0.00    -0.00   0.00   0.00
     7   8    -0.00   0.00  -0.00    -0.00   0.00   0.00     0.00   0.00  -0.00
     8   9    -0.00  -0.00   0.00    -0.00   0.00  -0.00     0.00   0.00  -0.00
     9   1    -0.00  -0.00  -0.01    -0.05  -0.05   0.32     0.01   0.01  -0.06
    10   1    -0.00   0.17   0.07    -0.00   0.84   0.36     0.00  -0.08  -0.03
    11   1     0.04   0.01  -0.31    -0.02  -0.01   0.14     0.02   0.01  -0.15
    12   1     0.55   0.25  -0.09    -0.05  -0.02   0.01     0.13   0.06  -0.02
    13   1     0.22  -0.01  -0.36    -0.01   0.00   0.01     0.19  -0.01  -0.30
    14   1    -0.12   0.16  -0.16    -0.00  -0.00  -0.00    -0.20   0.26  -0.26
    15   1     0.04  -0.01   0.16    -0.02   0.01  -0.07    -0.10   0.04  -0.41
    16   1    -0.03  -0.45   0.09     0.01   0.15  -0.03     0.05   0.66  -0.13
    17   1     0.00  -0.00   0.01     0.00  -0.00   0.00    -0.01   0.01  -0.07

 -------------------
 - Thermochemistry -
 -------------------
 Temperature   298.150 Kelvin.  Pressure   1.00000 Atm.
 Atom     1 has atomic number  6 and mass  12.00000
 Atom     2 has atomic number  6 and mass  12.00000
 Atom     3 has atomic number  6 and mass  12.00000
 Atom     4 has atomic number  6 and mass  12.00000
 Atom     5 has atomic number  6 and mass  12.00000
 Atom     6 has atomic number  6 and mass  12.00000
 Atom     7 has atomic number  8 and mass  15.99491
 Atom     8 has atomic number  9 and mass  18.99840
 Atom     9 has atomic number  1 and mass   1.00783
 Atom    10 has atomic number  1 and mass   1.00783
 Atom    11 has atomic number  1 and mass   1.00783
 Atom    12 has atomic number  1 and mass   1.00783
 Atom    13 has atomic number  1 and mass   1.00783
 Atom    14 has atomic number  1 and mass   1.00783
 Atom    15 has atomic number  1 and mass   1.00783
 Atom    16 has atomic number  1 and mass   1.00783
 Atom    17 has atomic number  1 and mass   1.00783
 Molecular mass:   116.06374 amu.
 Principal axes and moments of inertia in atomic units:
                           1         2         3
     Eigenvalues --   617.30145 901.092201389.36811
           X            0.99981  -0.01963   0.00209
           Y            0.01961   0.99975   0.01053
           Z           -0.00230  -0.01049   0.99994
 This molecule is an asymmetric top.
 Rotational symmetry number  1.
 Warning -- assumption of classical behavior for rotation
           may cause significant error
 Rotational temperatures (Kelvin)      0.14031     0.09612     0.06234
 Rotational constants (GHZ):           2.92360     2.00284     1.29897
 Zero-point vibrational energy     380070.8 (Joules/Mol)
                                   90.83911 (Kcal/Mol)
 Warning -- explicit consideration of   9 degrees of freedom as
           vibrations may cause significant error
 Vibrational temperatures:     70.18   199.51   308.60   415.94   468.23
          (Kelvin)            565.40   651.26   763.77   793.55   913.70
                             1091.33  1187.91  1228.70  1275.33  1369.77
                             1426.79  1532.32  1596.40  1617.14  1658.92
                             1674.58  1705.38  1787.21  1828.69  1869.51
                             1915.63  1955.26  1981.62  1994.03  2011.93
                             2049.42  2116.48  2178.22  2198.76  2219.17
                             2698.49  4369.29  4404.19  4420.88  4434.43
                             4446.06  4489.36  4505.16  4509.26  4526.16
 
 Zero-point correction=                           0.144761 (Hartree/Particle)
 Thermal correction to Energy=                    0.152172
 Thermal correction to Enthalpy=                  0.153116
 Thermal correction to Gibbs Free Energy=         0.112446
 Sum of electronic and zero-point Energies=           -408.515881
 Sum of electronic and thermal Energies=              -408.508471
 Sum of electronic and thermal Enthalpies=            -408.507526
 Sum of electronic and thermal Free Energies=         -408.548196
 
                     E (Thermal)             CV                S
                      KCal/Mol        Cal/Mol-Kelvin    Cal/Mol-Kelvin
 Total                   95.489             27.350             85.597
 Electronic               0.000              0.000              0.000
 Translational            0.889              2.981             40.162
 Rotational               0.889              2.981             28.138
 Vibrational             93.712             21.388             17.297
 Vibration     1          0.595              1.978              4.866
 Vibration     2          0.614              1.915              2.822
 Vibration     3          0.644              1.819              2.005
 Vibration     4          0.686              1.694              1.479
 Vibration     5          0.710              1.625              1.283
 Vibration     6          0.760              1.485              0.989
 Vibration     7          0.811              1.355              0.788
 Vibration     8          0.886              1.182              0.585
 Vibration     9          0.907              1.136              0.541
                       Q            Log10(Q)             Ln(Q)
 Total Bot       0.189851D-51        -51.721586       -119.093354
 Total V=0       0.730912D+15         14.863865         34.225314
 Vib (Bot)       0.122751D-64        -64.910975       -149.463043
 Vib (Bot)    1  0.423838D+01          0.627200          1.444182
 Vib (Bot)    2  0.146688D+01          0.166395          0.383139
 Vib (Bot)    3  0.924329D+00         -0.034174         -0.078688
 Vib (Bot)    4  0.661812D+00         -0.179265         -0.412774
 Vib (Bot)    5  0.575750D+00         -0.239766         -0.552082
 Vib (Bot)    6  0.455879D+00         -0.341150         -0.785528
 Vib (Bot)    7  0.378036D+00         -0.422467         -0.972767
 Vib (Bot)    8  0.301034D+00         -0.521384         -1.200531
 Vib (Bot)    9  0.284111D+00         -0.546512         -1.258391
 Vib (V=0)       0.472581D+02          1.674476          3.855625
 Vib (V=0)    1  0.476778D+01          0.678316          1.561880
 Vib (V=0)    2  0.204976D+01          0.311702          0.717720
 Vib (V=0)    3  0.155090D+01          0.190583          0.438833
 Vib (V=0)    4  0.132945D+01          0.123674          0.284769
 Vib (V=0)    5  0.126255D+01          0.101250          0.233136
 Vib (V=0)    6  0.117663D+01          0.070639          0.162653
 Vib (V=0)    7  0.112683D+01          0.051857          0.119405
 Vib (V=0)    8  0.108363D+01          0.034880          0.080315
 Vib (V=0)    9  0.107508D+01          0.031441          0.072397
 Electronic      0.100000D+01          0.000000          0.000000
 Translational   0.491473D+08          7.691500         17.710333
 Rotational      0.314694D+06          5.497888         12.659356
 ***** Axes restored to original set *****
 -------------------------------------------------------------------
 Center     Atomic                   Forces (Hartrees/Bohr)
 Number     Number              X              Y              Z
 -------------------------------------------------------------------
      1        6           0.000023448    0.000012996    0.000063834
      2        6          -0.000027661   -0.000030504   -0.000010109
      3        6          -0.000031794    0.000054820   -0.000044673
      4        6           0.000059656   -0.000072033   -0.000007788
      5        6          -0.000095984    0.000052012    0.000006035
      6        6          -0.000047128   -0.000016126    0.000006849
      7        8           0.000046741   -0.000016130    0.000007453
      8        9           0.000028481    0.000013221   -0.000002702
      9        1           0.000015057   -0.000000741   -0.000021383
     10        1          -0.000005987   -0.000006536   -0.000000929
     11        1           0.000005761    0.000005780   -0.000003932
     12        1           0.000003958    0.000002322    0.000020288
     13        1           0.000001785    0.000004336    0.000008795
     14        1           0.000018818   -0.000039900    0.000032277
     15        1           0.000002752    0.000008678   -0.000024742
     16        1          -0.000003071    0.000030778   -0.000017657
     17        1           0.000005167   -0.000002972   -0.000011614
 -------------------------------------------------------------------
 Cartesian Forces:  Max     0.000095984 RMS     0.000029996

 GradGradGradGradGradGradGradGradGradGradGradGradGradGradGradGradGradGrad
 Berny optimization.
 Search for a local minimum.
 Step number   1 out of a maximum of    2
 All quantities printed in internal units (Hartrees-Bohrs-Radians)
 Second derivative matrix not updated -- analytic derivatives used.
 ITU=  0
     Eigenvalues ---    0.00033   0.00248   0.00425   0.01217   0.02075
     Eigenvalues ---    0.02795   0.03235   0.03788   0.04229   0.04706
     Eigenvalues ---    0.04808   0.04960   0.05639   0.05984   0.06234
     Eigenvalues ---    0.06843   0.07430   0.07852   0.08753   0.11471
     Eigenvalues ---    0.12515   0.12759   0.14302   0.15408   0.16915
     Eigenvalues ---    0.20226   0.21037   0.26969   0.29529   0.38892
     Eigenvalues ---    0.40314   0.50957   0.56232   0.66385   0.66532
     Eigenvalues ---    0.69739   0.79178   0.79816   0.81204   0.82315
     Eigenvalues ---    0.84635   0.87268   0.88551   0.93552   1.79196
 Angle between quadratic step and forces=  80.88 degrees.
 Linear search not attempted -- first point.
 TrRot= -0.000019 -0.000032  0.000035  0.000003  0.000018  0.000003
 MatCor failed.
 Variable       Old X    -DE/DX   Delta X   Delta X   Delta X     New X
                                 (Linear)    (Quad)   (Total)
    X1        1.37081   0.00002   0.00000   0.00006   0.00002   1.37083
    Y1        2.72423   0.00001   0.00000  -0.00003  -0.00006   2.72417
    Z1       -0.31974   0.00006   0.00000   0.00028   0.00029  -0.31945
    X2        3.42286  -0.00003   0.00000  -0.00022  -0.00023   3.42263
    Y2        1.04823  -0.00003   0.00000  -0.00021  -0.00022   1.04801
    Z2        0.81957  -0.00001   0.00000   0.00034   0.00032   0.81989
    X3        3.38639  -0.00003   0.00000  -0.00010  -0.00011   3.38628
    Y3       -1.63499   0.00005   0.00000   0.00012   0.00010  -1.63489
    Z3       -0.29688  -0.00004   0.00000  -0.00027  -0.00030  -0.29717
[...]
 67742,2.8971047,1.3224051,0.1506885,0.2474826,0.2232146,2.149534,2.798
 471,2.1435203,0.2300608,-0.2264383,0.0591145,-0.3609508,0.0325623,-0.5
 149965,1.6691105,0.7848008,0.5287088,3.6669063,-0.8600093,0.3217927,-2
 .8131345,0.2039952,1.7194119,-0.3833491,1.3843786,-0.3170753,-0.040850
 9,-1.2747102,-0.256706,-2.1477434,0.3177722,-0.4859031,3.0591996,-1.17
 03508,-5.0881469,3.4171202,-2.5644926,1.3080732,1.6076037,-0.7381487,0
 .9545397,-1.5867297,2.440086,-3.9196396,-0.8875879,2.0976214,-0.791185
 ,1.5185112,-1.08397,1.8186188,2.3210127,-1.9119848,2.4265349,-0.902517
 4,0.1391813,-0.206962,-1.762607,-0.3560654,-1.3489597,0.7179598,-0.619
 1338,-0.775397,-0.1192591,-1.4892393,0.2283434,-0.7998689,-0.1610662,-
 0.3342327,-1.2789271,-0.9542493,-7.128881,-0.0753527,-1.8690387,-0.879
 1171,0.3549538,-0.0796424,-0.2087521,-0.5606833,-0.6448056,-10.407407,
 -0.0184565,0.2369829,-0.2889322,0.5045108,0.0343781,0.8513047,-0.51067
 8,-1.8312134,-0.2042663,0.5580454,-0.663173,0.5306932,1.764212,0.05679
 53,0.6827215,-0.4137123,0.4769572,-0.4698131,0.1971916,1.723862,-0.536
 8689,0.7851444,0.1617784,1.0098856,-0.0224868,-1.2941095,7.805469\Hype
 rPolar=78.9701323,4.1495785,22.823762,2.763582,1.0515107,-5.9263709,19
 .2534418,24.7752414,-3.0961755,-5.4797334\AAT=0.0418719,0.0938051,0.27
 12875,-0.2975186,0.1713472,-0.0160857,-1.0579984,0.7172961,-0.3505015,
 -0.0398313,-0.0398262,-0.0024303,0.1021771,0.0189383,0.0026479,0.00854
 83,-0.0207238,-0.0113859,0.0011213,0.0138317,0.001303,-0.015023,0.0071
 967,-0.085165,0.0799026,0.0776587,0.046031,-0.0110855,0.1301887,-0.099
 7691,0.0948,-0.000953,0.0791915,-0.0403315,-0.0124513,-0.0320203,-0.15
 2433,0.1219576,0.2998299,0.3298524,0.0282847,-0.2582946,1.0692827,-0.1
 274474,0.096174,0.0119086,-0.049787,-0.5873433,-0.0121009,0.0249396,-0
 .5374043,0.3452632,0.5357347,0.0984572,-0.0477475,0.0931794,0.6411635,
 -0.1294,-0.0966234,0.6683836,-0.8386158,-1.0839949,0.0791883,0.0657867
 ,-0.1111032,-0.385809,0.090444,-0.109798,0.5077081,0.2128753,-0.536292
 7,0.0372779,0.1336813,-0.2731255,0.0165727,0.2723382,-0.0313228,0.0724
 303,-0.0890658,-0.0084615,0.0108685,-0.0774533,0.1285892,-0.1419521,-0
 .1698054,0.0366966,-0.0547932,0.1568184,-0.0366675,0.0090131,0.010099,
 0.0735377,0.0316824,-0.1058371,-0.0045585,-0.058413,-0.0992608,0.24047
 21,-0.007965,0.0223525,-0.0901973,-0.0537384,0.0615015,-0.0311131,0.07
 36864,0.0410898,-0.0986864,-0.0059199,-0.0635324,-0.1676403,-0.0798803
 ,0.1374018,0.0071834,0.0526876,0.0714693,0.061969,0.0305379,0.0273621,
 0.166763,0.0902518,-0.1315673,-0.0754117,-0.0448911,-0.0291105,0.01356
 93,0.0353301,0.0553872,-0.1497829,-0.0459747,0.1004999,-0.0067867,-0.0
 060991,0.1665497,0.0145984,-0.0445758,-0.0455154,0.0612572,0.1171543,-
 0.0831741,0.0044025,0.0049648,-0.0851013,-0.0093919,0.0026474,0.048416
 4,0.0524904,0.02073,-0.2878283,0.0425731,-0.0304187,0.0000213,-0.08727
 77,-0.0071734\GPTens=-1.8642157,0.0218046,1.3692633,3.1970749,0.691531
 ,-32.6584954,1.9940018,29.9020287,-0.4661501\OptRot=0.1819653,-0.26433
 33,0.350832,-0.2643333,-0.6140502,0.1764655,0.350832,0.1764655,-1.2067
 501\DQPolar=65.3069961,-41.6966244,-23.6103717,16.7369251,-5.2190159,1
 .6566057,6.8985807,-0.09075,-6.8078306,49.071674,4.1382365,-0.1808714,
 -0.5857639,0.1292877,0.4564762,3.8611368,63.0567174,-6.5026722\PG=C01 
 [X(C6H9F1O1)]\NImag=0\\0.46241594,-0.01053226,0.58034343,-0.00091437,0
 .02315048,0.54015588,-0.14245551,0.04704571,-0.03863591,0.57880304,0.0
 4793918,-0.12327261,0.02842006,0.04795298,0.47672583,-0.03661344,0.029
 34101,-0.10380022,-0.02504162,-0.01316260,0.57156781,0.00078361,0.0222
 2962,0.01017010,-0.08045341,0.00089035,0.00162726,0.51746547,0.0031387
 7,-0.02606912,-0.00554226,0.00084142,-0.17173960,-0.04238933,-0.046048
 80,0.49625339,0.00165738,0.01280145,0.00763955,-0.00160255,-0.04070009
 ,-0.10003313,-0.01766058,-0.04641765,0.59061777,0.00072447,0.00067172,
 0.00001703,-0.00003906,-0.00770984,-0.00155986,-0.17434063,-0.02782361
 ,-0.01598143,0.46618554,-0.00216569,0.00205741,0.00382443,-0.02965122,
 -0.01365717,-0.00305185,-0.03157769,-0.08939650,-0.00855219,0.00713210
 ,0.59216359,0.00068916,0.00036399,0.00058087,-0.01031243,-0.00255236,-
 0.00157457,-0.02166216,-0.00668729,-0.08375722,0.02649623,-0.02984367,
 0.57021428,-0.00052188,-0.02495142,0.00603234,-0.00040059,-0.00134093,
 0.00078780,-0.02561519,0.00699250,0.01208248,-0.11123060,0.04742436,0.
 04598869,0.54001347,-0.00513063,-0.00450230,0.00311682,-0.00340841,-0.
 00066568,0.00036308,-0.00772033,0.00800949,0.01122909,0.03065409,-0.11
 793155,-0.03564845,0.03092033,0.47990252,0.00006988,0.00674649,0.02164
 866,0.00272025,0.00070981,0.00311359,-0.00196006,0.00880842,0.00534267
 ,0.03640709,-0.04672682,-0.12246490,0.02433711,-0.00184554,0.55591150,
 -0.15165853,-0.04351188,0.00904644,-0.02536141,-0.00056057,-0.00103408
 ,0.00175626,0.00047313,0.00079172,0.00083485,0.02608713,-0.00483719,-0
 .07631255,-0.00949067,0.00469554,0.88401599,-0.04885568,-0.12380143,0.
 01028197,0.02141165,0.01391684,-0.00629725,0.00273241,0.00143883,0.000
 82878,0.01358888,-0.01791291,-0.00294699,-0.02704132,-0.16310983,0.015
 11517,-0.23462156,0.62415815,0.01138737,0.00982052,-0.08698970,-0.0149
 1705,-0.00908840,0.00134923,-0.00034464,-0.00061154,0.00002036,-0.0024
 1463,-0.02110844,0.00845973,0.01264178,0.02459195,-0.09728906,0.080022
 36,-0.10746328,0.27710611,-0.05322280,0.02131038,-0.00531749,-0.006897
 87,-0.00715828,0.00380525,0.00018573,-0.00133591,-0.00059824,0.0023684
 4,-0.00071269,-0.00253243,-0.01429033,0.02445791,-0.01098800,-0.602362
 95,0.31042935,-0.09988401,0.66628677,0.00161473,0.02196207,-0.00410887
 ,-0.00339742,-0.00092550,0.00152811,-0.00174740,-0.00002029,-0.0005026
 7,-0.00327459,-0.00544590,0.00469470,0.04549686,-0.03064171,0.01764972
 ,0.30749993,-0.29139775,0.06987119,-0.35415151,0.30161481,0.00004161,-
 0.00321799,0.01809070,0.00145041,0.00237772,0.00098327,0.00050116,0.00
 012089,0.00004087,0.00282959,0.00566267,-0.00361578,-0.01812738,0.0152
 5991,0.01971464,-0.10052912,0.06917242,-0.08943003,0.11535592,-0.08574
 582,0.05036276,0.00217340,-0.00291617,-0.00066045,0.00150542,0.0009794
 8,0.00022577,-0.00163499,0.00576113,0.00742551,-0.04703763,-0.01851486
 ,-0.00771876,-0.25758336,-0.08378903,-0.03596549,-0.02815682,-0.008468
 87,-0.00362790,0.00980120,0.00353882,0.00154617,0.34629290,0.00268470,
 -0.00646891,0.00278438,0.00171851,-0.00057292,-0.00011668,0.00189327,-
 0.00055550,-0.00267907,0.01030769,0.00824584,0.00433465,-0.07483018,-0
 .09636765,-0.01680032,-0.04856090,-0.02338820,-0.00670985,-0.00149481,
 0.00717361,-0.00081335,0.11836547,0.10856837,-0.00032191,0.00147650,0.
 00013119,-0.00039836,-0.00042800,-0.00087245,0.00170281,-0.00279556,-0
 .00117778,0.01715140,0.00781988,0.00827346,-0.03733397,-0.01705014,-0.
 07486268,0.00510563,0.00655011,0.00423704,0.00266933,-0.00153417,-0.00
 048325,0.04998454,0.02047491,0.06037158,-0.05215811,-0.00466520,0.0473
 3027,0.00418064,0.00334401,-0.02695052,0.00092571,-0.00116412,0.000298
 40,0.00021918,-0.00065313,0.00056665,-0.00177910,-0.00008294,-0.003633
 83,-0.00586610,-0.00237036,0.03337848,-0.00057008,-0.00045645,-0.00460
 126,-0.00030361,-0.00117417,0.00001776,0.05766016,-0.00519589,-0.04680
 493,0.03236358,-0.00277554,-0.00285935,0.01955972,-0.00072816,0.000899
 02,0.00060245,-0.00015842,-0.00054260,0.00029875,-0.00117468,0.0001969
 0,-0.00284470,-0.00353675,-0.00413239,0.01480547,0.00143732,0.00063506
 ,-0.00060850,-0.00027762,-0.00088225,-0.00002158,0.00388041,0.05027717
 ,0.04093245,0.02779015,-0.29681487,0.00111958,0.00134715,-0.01314506,-
 0.00001421,-0.00033507,0.00071290,-0.00007906,-0.00017502,-0.00017041,
 0.00068951,-0.00012552,-0.00027625,0.00156008,0.00048366,-0.00442188,-
 0.00078346,0.00052170,0.00146701,0.00017974,0.00019970,0.00002370,-0.0
 4343303,-0.03360675,0.32356209,-0.04752559,0.00043787,-0.00347005,0.00
 105612,0.02207521,0.01204381,-0.00365541,0.00214015,-0.00362572,-0.000
 62951,0.00026136,-0.00015110,-0.00350107,0.00094253,0.00195304,0.00042
 764,-0.03132012,-0.01399656,0.00195098,0.00314772,0.00219823,-0.000913
 75,-0.00186674,0.00028354,-0.00001784,0.00554190,0.00235809,0.05103286
 ,0.00075075,-0.27584535,-0.10362553,-0.00128754,-0.01405090,-0.0072522
 8,0.00262414,-0.00044289,0.00274066,0.00045262,0.00112439,0.00016217,-
 0.00185187,0.00116210,0.00048900,-0.00098758,-0.01601970,-0.00431219,0
 .00210006,0.00282565,0.00088741,-0.00074966,-0.00086297,0.00013528,0.0
 0006517,0.00404447,0.00209874,-0.00099423,0.29835756,-0.00268172,-0.10
 239910,-0.08850246,0.00135102,0.01411046,0.00600298,-0.00217998,0.0014
 6057,-0.00071401,-0.00035355,-0.00044294,-0.00027544,0.00117974,-0.000
 24713,-0.00047692,0.00358250,0.00734334,0.00037894,-0.00185038,0.00021
 616,0.00024193,0.00027619,0.00050041,-0.00009869,-0.00100444,-0.030257
 55,-0.01300003,0.00085688,0.10903361,0.09483776,0.00229357,0.00241137,
 -0.02645757,-0.05637089,-0.00403086,0.03657473,-0.00071056,0.00104007,
 -0.00027711,0.00004403,0.00016856,-0.00009763,-0.00074645,-0.00041009,
 -0.00042073,0.00157015,0.00007075,-0.00095049,-0.00005423,-0.00001806,
 0.00034241,0.00026876,0.00006180,0.00019070,-0.00352923,0.00300524,-0.
 00236350,0.00097375,-0.00048982,0.00071107,0.05933826,-0.00207543,-0.0
 0220921,0.02098304,-0.00417600,-0.04843859,0.01344296,0.00733954,-0.00
 131319,-0.03229615,0.00075634,0.00071327,0.00022348,-0.00014986,-0.000
 17655,0.00004352,-0.00138202,0.00022732,-0.00001849,0.00037392,-0.0001
 9925,-0.00021650,0.00006949,0.00017660,0.00008521,0.00388000,-0.001701
 17,0.00167075,-0.00078636,0.00037194,-0.00005168,-0.00066552,0.0577873
 5,0.00087884,0.00134926,-0.01275790,0.03635750,0.01331810,-0.30452441,
 0.00274714,0.00019920,-0.01106807,0.00047804,0.00009091,0.00007827,-0.
 00029554,-0.00022203,-0.00177268,0.00116211,0.00092747,-0.00040471,-0.
 00063839,-0.00020703,0.00015291,0.00018396,0.00005070,0.00071520,-0.00
 232396,0.00162242,0.00060888,-0.00001297,0.00035774,0.00049901,-0.0384
 8380,-0.01508036,0.33006592,-0.02138007,-0.00972509,0.00355774,-0.2666
 6982,-0.10117546,0.03653835,0.00143076,0.00092899,0.00017211,0.0009677
 8,0.00001731,0.00033899,0.00074344,0.00044893,0.00049901,0.00121472,0.
 00506358,-0.00271102,-0.00287901,-0.00055227,0.00037339,-0.00010590,-0
 .00015319,-0.00013224,0.00117432,-0.00048714,-0.00013339,0.00042384,0.
 00019368,0.00043851,-0.00372992,-0.00150094,0.00086783,0.28791050,0.02
 084236,0.00946130,-0.00339676,-0.10153778,-0.09345593,0.01767434,-0.02
 801257,-0.01220756,0.00288627,0.00196032,-0.00521291,-0.00114776,0.000
 80675,-0.00008401,-0.00060329,0.00075101,-0.00443373,0.00285743,0.0024
 2118,0.00074314,-0.00048382,-0.00018166,0.00028347,0.00011848,-0.00098
 539,0.00070597,-0.00038806,-0.00049902,0.00057882,-0.00056255,-0.00152
 198,-0.00110373,0.00040001,0.10748419,0.10357316,-0.01435446,-0.006514
 97,0.00161082,0.03829419,0.01854853,-0.05510520,-0.01349598,-0.0070811
 0,0.00013463,0.00028127,-0.00340432,-0.00020711,0.00018261,0.00017500,
 -0.00109262,-0.00071820,0.00256389,-0.00100959,-0.00170379,-0.00018658
 ,0.00018651,0.00023331,0.00003117,0.00035646,0.00015823,-0.00082871,0.
 00058585,0.00068646,-0.00011107,0.00033117,0.03061406,0.01394502,-0.00
 487944,-0.03887469,-0.01707397,0.05801029,-0.00008120,0.00000799,0.000
 28232,0.00023944,-0.00097147,-0.00177587,-0.11829198,0.00318709,0.1194
 0150,-0.01973598,0.00123290,0.02487551,-0.00187620,-0.00410414,-0.0025
 7702,-0.00028391,-0.00126815,0.00039445,-0.00003138,0.00053438,-0.0001
 9590,-0.00290367,0.00081973,0.00075166,-0.00008993,0.00036632,-0.00009
 513,0.00004300,0.00009914,-0.00020171,0.00095587,-0.00066327,-0.000741
 05,0.00107081,-0.00013144,-0.00069454,0.13191357,-0.00070022,0.0011869
 0,-0.00078832,0.01489690,-0.00174712,-0.03015232,0.00260358,-0.0490460
 6,0.00136755,-0.00573295,0.00075444,0.00858527,-0.00042639,-0.00137535
 ,-0.00085918,-0.00018908,-0.00020606,0.00003116,0.00001756,0.00016600,
 -0.00007589,-0.00077073,0.00027747,0.00018363,0.00016968,-0.00015591,0
 .00074273,-0.00013657,-0.00004559,0.00036234,0.00067877,-0.00572785,-0
 .00247538,0.00010486,0.00180736,0.00020447,0.00145985,0.05307045,-0.00
 029746,0.00009637,0.00036365,0.00424633,-0.00057412,-0.01175408,0.1200
 8517,0.00060076,-0.24664586,-0.00697449,0.00039947,0.00618808,-0.00116
 684,-0.00058706,0.00030394,-0.00023193,-0.00010828,-0.00000666,0.00016
 305,-0.00001154,0.00001266,-0.00062296,0.00012056,0.00015370,0.0004785
 7,-0.00033919,0.00014622,0.00005834,-0.00008298,0.00010505,0.00003671,
 -0.00297272,0.00048043,-0.00039784,-0.00010622,0.00077694,-0.12606213,
 0.00428263,0.26580297,0.00056904,0.00042215,0.00016703,0.00022228,0.00
 065706,0.00061686,-0.10637513,0.07692244,-0.07704981,-0.01511953,0.016
 58987,-0.02045114,0.00017651,-0.00096973,-0.00228941,0.00041862,-0.000
 69638,0.00008128,0.00004507,0.00011226,-0.00003199,-0.00090065,0.00009
 024,0.00083083,-0.00011692,0.00007075,-0.00003258,0.00005053,0.0000944
 4,-0.00020136,0.00051291,0.00008503,0.00007450,-0.00015341,0.00034688,
 0.00024655,0.00866231,-0.01193934,0.01104324,0.11531153,-0.00181324,-0
 .00513780,-0.00392065,0.01555031,-0.01970804,0.01926037,0.07824190,-0.
 15003918,0.10739536,-0.00790845,0.00629184,-0.00918427,0.00011409,-0.0
 0032496,-0.00058098,-0.00138530,-0.00070264,0.00013356,0.00059681,0.00
 028491,-0.00004060,-0.00014555,0.00015626,0.00018650,-0.00032850,0.000
 25656,-0.00007481,0.00159790,-0.00096098,0.00071025,0.00045238,0.00161
 837,-0.00012640,-0.00045671,-0.00012423,0.00015036,-0.00054861,0.00028
 649,-0.00037608,-0.08115344,0.16663451,-0.00028481,-0.00263150,-0.0005
 3734,0.00824411,-0.01136336,0.00819709,-0.07776395,0.10791961,-0.15853
 070,-0.00191763,0.00109540,-0.00372788,0.00016317,-0.00034007,-0.00020
 839,-0.00031840,-0.00030059,-0.00005191,0.00010915,0.00018783,-0.00002
 190,-0.00011845,0.00016632,0.00001388,0.00010055,-0.00033138,0.0001711
 9,0.00054671,-0.00053291,0.00039755,0.00043744,-0.00000894,0.00147313,
 -0.00025062,0.00050016,0.00002500,-0.01363337,0.01867828,-0.01805092,0
 .08656787,-0.11224573,0.16883286,-0.00011935,0.00012434,0.00000123,-0.
 00122722,0.00068507,0.00009653,-0.01041184,0.00468728,-0.02849024,-0.0
 6030047,0.00716996,-0.05958956,0.00419442,-0.00114433,0.02562377,0.001
 53817,-0.00160614,0.00047702,-0.00046185,0.00011666,-0.00027662,0.0023
 0559,-0.00043879,-0.00216648,0.00007089,-0.00026413,0.00017505,0.00010
 343,-0.00000055,0.00008258,0.00000252,-0.00008521,-0.00006613,0.000016
 17,-0.00029612,-0.00011125,0.00124868,0.00012467,-0.00043932,-0.004710
 59,-0.00265630,-0.00148846,0.07053135,-0.00013865,0.00016284,0.0001324
 7,-0.00062536,0.00018880,-0.00002476,-0.00228540,0.00048460,-0.0100098
 8,0.00787300,-0.05700218,0.03292277,-0.00416895,0.00081724,-0.02071991
 ,-0.00038623,0.00102647,-0.00183929,-0.00001224,0.00019725,0.00026978,
 -0.00091399,0.00028669,0.00181656,-0.00014183,-0.00059601,0.00006107,0
 .00006338,0.00002538,0.00015066,0.00011936,0.00008175,0.00013669,-0.00
 000272,-0.00021543,0.00003242,0.00047002,0.00129056,-0.00010812,-0.000
 90636,0.,-0.00057510,-0.00897351,0.05763780,-0.00014842,-0.00005300,-0
 .00077805,-0.00031353,0.00008280,0.00008970,0.00017841,0.00110319,-0.0
 0211551,-0.05846798,0.03285320,-0.29669308,-0.00440970,-0.00022001,-0.
 02073633,-0.00042088,0.00216155,-0.00069126,0.00085983,-0.00099032,0.0
 0040506,0.00043160,0.00078474,0.00254586,-0.00014634,-0.00007565,0.000
 33396,0.00000361,-0.00014761,0.00021016,0.00008479,0.00005637,0.000137
 68,-0.00000525,-0.00014952,-0.00003737,0.00019224,-0.00016994,0.001907
 48,-0.00015948,-0.00082364,0.00086576,0.06110709,-0.03250353,0.3217194
 0,0.00013575,0.00055257,-0.00077022,-0.00532902,-0.00068540,0.00070749
 ,-0.00238817,-0.02969252,0.00392682,-0.04717331,-0.02145098,0.00434694
 ,0.00016468,0.02707948,-0.00331562,-0.00434422,-0.00117601,0.00429771,
 -0.00027233,0.00211369,-0.00165652,0.00234769,-0.00131814,-0.00078455,
 0.00015358,0.00011925,0.00006441,0.00005237,-0.00016066,0.00010085,0.0
 0002570,-0.00001403,-0.00012791,0.00000670,-0.00157076,-0.00080376,-0.
 00125334,-0.00029950,0.00025261,0.00170293,-0.00031667,-0.00019781,0.0
 0045771,0.00699446,-0.00143642,0.05486806,-0.00011513,0.00077216,0.000
 66617,-0.00177375,0.00032135,0.00043112,0.00022112,-0.00656831,0.00113
 613,-0.01963383,-0.30785194,0.05684316,-0.00158586,-0.01998664,0.00313
 357,0.00221708,0.00187074,-0.00339349,0.00057908,-0.00141928,0.0009386
 7,-0.00023269,0.00261326,0.00045122,-0.00014306,-0.00003862,-0.0000597
 9,0.00002663,0.00005972,-0.00004402,0.00002370,-0.00001289,-0.00007685
 ,-0.00002901,-0.00044329,-0.00033725,-0.00039576,-0.00038904,-0.000321
 68,0.00014231,0.00152007,-0.00032192,-0.00013024,-0.00305890,0.0005710
 8,0.02121128,0.33146756,-0.00009766,0.00050210,0.00006884,-0.00192641,
 -0.00090871,0.00006476,-0.00171227,-0.00774157,-0.00016835,0.00523232,
 0.05924274,-0.06258419,-0.00050569,-0.02351304,0.00361794,0.00327686,0
 .00097029,-0.00305564,0.00072474,-0.00208912,0.00142559,-0.00192974,0.
 00151336,0.00019745,-0.00019439,-0.00019027,0.00017705,0.00001098,0.00
 000742,0.00008348,0.00005033,0.00002333,-0.00001411,-0.00015263,-0.000
 46304,-0.00025451,0.00003559,-0.00004069,0.00000747,-0.00000899,-0.000
 52123,0.00119667,0.00231328,0.03257815,-0.00653166,-0.00399387,-0.0596
 5434,0.06449456,0.00002724,0.00108829,-0.00037843,-0.00080215,-0.00089
 054,-0.00004844,0.00132978,-0.00004800,-0.00047025,0.00426243,-0.00135
 730,0.02405022,-0.05143519,0.00174705,-0.03515553,0.00257007,0.0041279
 6,-0.00383415,0.00040464,-0.00057736,0.00077992,-0.02515459,-0.0061045
 0,-0.03755068,0.00004645,0.00017713,-0.00014456,0.00012866,0.00014192,
 -0.00010620,-0.00084424,-0.00100568,-0.00006018,-0.00004090,0.00012403
 ,0.00006001,0.00041390,0.00013892,-0.00017105,-0.00029551,0.00015939,-
 0.00019550,-0.00323760,0.00303500,0.00265043,0.00084523,-0.00038187,-0
 .00112244,0.07178179,-0.00024767,-0.00183444,-0.00434101,-0.00078446,-
 0.00005942,0.00084637,-0.00065559,0.00031286,0.00016996,-0.00115508,0.
 00360288,-0.02041814,0.00576657,-0.05492202,0.03828504,0.00758427,0.00
 246629,0.03243370,0.00114187,-0.00555281,-0.00348699,-0.01175355,0.001
 31682,-0.01746881,0.00082586,0.00069807,-0.00015063,-0.00063160,-0.000
 32166,0.00011717,-0.00089566,-0.00009417,-0.00026445,-0.00015901,0.000
 12762,-0.00011288,-0.00009459,-0.00014669,0.00008822,0.00013183,-0.000
 05119,0.00010389,0.00268734,-0.00132688,-0.00247970,-0.00138607,0.0011
 4403,0.00028463,-0.00037445,0.05464071,0.00005754,0.00137822,-0.000109
 61,-0.00063552,-0.00013697,-0.00055931,-0.00021824,-0.00061126,-0.0002
 9812,-0.00114434,0.00231655,-0.01872410,-0.04224611,0.02506312,-0.2904
 7312,-0.00115344,0.00071774,-0.00820097,0.00060894,0.00070672,0.000467
 05,-0.00984303,-0.00384163,0.00047535,-0.00004113,-0.00014810,0.000039
 65,0.00025671,0.00015254,-0.00002049,0.00000861,0.00017118,0.00120990,
 -0.00012827,-0.00006170,0.00056816,0.00004347,0.00012365,0.00020894,0.
 00059661,0.00005802,-0.00004408,0.00275150,-0.00231996,-0.00063182,-0.
 00061013,0.00003823,0.00127465,0.05169684,-0.02360636,0.31481793\\-0.0
 0002345,-0.00001300,-0.00006383,0.00002766,0.00003050,0.00001011,0.000
 03179,-0.00005482,0.00004467,-0.00005966,0.00007203,0.00000779,0.00009
 598,-0.00005201,-0.00000603,0.00004713,0.00001613,-0.00000685,-0.00004
 674,0.00001613,-0.00000745,-0.00002848,-0.00001322,0.00000270,-0.00001
 506,0.00000074,0.00002138,0.00000599,0.00000654,0.00000093,-0.00000576
 ,-0.00000578,0.00000393,-0.00000396,-0.00000232,-0.00002029,-0.0000017
 8,-0.00000434,-0.00000880,-0.00001882,0.00003990,-0.00003228,-0.000002
 75,-0.00000868,0.00002474,0.00000307,-0.00003078,0.00001766,-0.0000051
 7,0.00000297,0.00001161\\\@


 IN SO FAR AS QUANTUM MECHANICS IS CORRECT, CHEMICAL 
 QUESTIONS ARE PROBLEMS IN APPLIED MATHEMATICS.

                    -- EYRING, WALTER, & KIMBALL, 1944
 Job cpu time:  0 days  0 hours  6 minutes 38.2 seconds.
 File lengths (MBytes):  RWF=     50 Int=      0 D2E=      0 Chk=      2 Scr=      1
 Normal termination of Gaussian 09 at Mon Dec  4 19:26:15 2023.
