/scratch/2683979.1.medium_queue
 Entering Gaussian System, Link 0=/opt/cesga/g09a2/g09.exe
 Initial command:
 /opt/cesga/g09a2/l1.exe /scratch/2683979.1.medium_queue/Gau-5296.inp -scrdir=/scratch/2683979.1.medium_queue/
 Default is to use a total of   8 processors:
                                8 via shared-memory
                                1 via Linda
 Entering Link 1 = /opt/cesga/g09a2/l1.exe PID=      5297.
  
 Copyright (c) 1988,1990,1992,1993,1995,1998,2003,2009, Gaussian, Inc.
                  All Rights Reserved.
  
 This is part of the Gaussian(R) 09 program.  It is based on
 the Gaussian(R) 03 system (copyright 2003, Gaussian, Inc.),
 the Gaussian(R) 98 system (copyright 1998, Gaussian, Inc.),
 the Gaussian(R) 94 system (copyright 1995, Gaussian, Inc.),
 the Gaussian 92(TM) system (copyright 1992, Gaussian, Inc.),
 the Gaussian 90(TM) system (copyright 1990, Gaussian, Inc.),
 the Gaussian 88(TM) system (copyright 1988, Gaussian, Inc.),
 the Gaussian 86(TM) system (copyright 1986, Carnegie Mellon
 University), and the Gaussian 82(TM) system (copyright 1983,
 Carnegie Mellon University). Gaussian is a federally registered
 trademark of Gaussian, Inc.
  
 This software contains proprietary and confidential information,
 including trade secrets, belonging to Gaussian, Inc.
  
 This software is provided under written license and may be
 used, copied, transmitted, or stored only in accord with that
 written license.
  
 The following legend is applicable only to US Government
 contracts under FAR:
  
                    RESTRICTED RIGHTS LEGEND
  
 Use, reproduction and disclosure by the US Government is
 subject to restrictions as set forth in subparagraphs (a)
 and (c) of the Commercial Computer Software - Restricted
 Rights clause in FAR 52.227-19.
  
 Gaussian, Inc.
 340 Quinnipiac St., Bldg. 40, Wallingford CT 06492
  
  
 ---------------------------------------------------------------
 Warning -- This program may not be used in any manner that
 competes with the business of Gaussian, Inc. or will provide
 assistance to any competitor of Gaussian, Inc.  The licensee
 of this program is prohibited from giving any competitor of
 Gaussian, Inc. access to this program.  By using this program,
 the user acknowledges that Gaussian, Inc. is engaged in the
 business of creating and licensing software in the field of
 computational chemistry and represents and warrants to the
 licensee that it is not a competitor of Gaussian, Inc. and that
 it will not use this program in any manner prohibited above.
 ---------------------------------------------------------------
  

 Cite this work as:
 Gaussian 09, Revision A.02,
 M. J. Frisch, G. W. Trucks, H. B. Schlegel, G. E. Scuseria, 
 M. A. Robb, J. R. Cheeseman, G. Scalmani, V. Barone, B. Mennucci, 
 G. A. Petersson, H. Nakatsuji, M. Caricato, X. Li, H. P. Hratchian, 
 A. F. Izmaylov, J. Bloino, G. Zheng, J. L. Sonnenberg, M. Hada, 
 M. Ehara, K. Toyota, R. Fukuda, J. Hasegawa, M. Ishida, T. Nakajima, 
 Y. Honda, O. Kitao, H. Nakai, T. Vreven, J. A. Montgomery, Jr., 
 J. E. Peralta, F. Ogliaro, M. Bearpark, J. J. Heyd, E. Brothers, 
 K. N. Kudin, V. N. Staroverov, R. Kobayashi, J. Normand, 
 K. Raghavachari, A. Rendell, J. C. Burant, S. S. Iyengar, J. Tomasi, 
 M. Cossi, N. Rega, J. M. Millam, M. Klene, J. E. Knox, J. B. Cross, 
 V. Bakken, C. Adamo, J. Jaramillo, R. Gomperts, R. E. Stratmann, 
 O. Yazyev, A. J. Austin, R. Cammi, C. Pomelli, J. W. Ochterski, 
 R. L. Martin, K. Morokuma, V. G. Zakrzewski, G. A. Voth, 
 P. Salvador, J. J. Dannenberg, S. Dapprich, A. D. Daniels, 
 O. Farkas, J. B. Foresman, J. V. Ortiz, J. Cioslowski, 
 and D. J. Fox, Gaussian, Inc., Wallingford CT, 2009.
 
 ******************************************
 Gaussian 09:  IA64L-G09RevA.02 11-Jun-2009
                 1-Dec-2010 
 ******************************************
 %mem=4096mb
 %chk=homodimer_srrr_c2_st1_cb3opbe
 Default route:  SCF=Direct
 ----------------------------------------------------------------------
 #CAM-B3LYP 6-31+G** td=(singlets,nstates=50) scrf=(pcm,solvent=chlorof
 orm)
 ----------------------------------------------------------------------
 1/38=1/1;
 2/12=2,17=6,18=5,40=1/2;
 3/5=1,6=6,7=111,11=2,16=1,25=1,30=1,70=2201,72=7,74=-40/1,2,8,3;
 4//1;
 5/5=2,38=5,53=7/2;
 8/6=1,10=2,108=50/1;
 9/41=50,42=1,48=1/14;
 6/7=2,8=2,9=2,10=2/1;
 99/5=1,9=1/99;
 --------------------
 OPBE/6-31G* geometry
 --------------------
 Symbolic Z-matrix:
 Charge =  0 Multiplicity = 1
 C                    -4.20686  -0.50207  -0.76851 
 C                    -4.51561  -0.99078   0.5053 
 C                    -3.5075   -1.3672    1.39829 
 C                    -2.1755   -1.22936   0.98885 
 C                    -1.84459  -0.71559  -0.28225 
 C                    -2.86739  -0.37282  -1.16613 
 N                    -1.02705  -1.50194   1.71099 
 C                     0.09469  -1.55242   0.81607 
 C                    -0.32402  -0.72033  -0.44676 
 N                     0.37722  -2.89244   0.26738 
 C                     0.86715  -2.78377  -1.09685 
 C                     0.10515  -1.5853   -1.66772 
 C                     0.50502  -3.9947    1.04772 
 C                     0.91003  -5.28596   0.3133 
 N                     0.69743  -5.19735  -1.11946 
 C                     0.70134  -4.07515  -1.88947 
 C                     0.20385  -6.51734   0.92909 
 C                     0.86715  -7.83053   0.50014 
 C                    -1.3065   -6.53038   0.68049 
 O                     0.60728  -4.09008  -3.11322 
 O                     0.31969  -3.99075   2.26877 
 C                     4.20686   0.50207  -0.76851 
 C                     4.51561   0.99078   0.5053 
 C                     3.5075    1.3672    1.39829 
 C                     2.1755    1.22936   0.98885 
 C                     1.84459   0.71559  -0.28225 
 C                     2.86739   0.37282  -1.16613 
 N                     1.02705   1.50194   1.71099 
 C                    -0.09469   1.55242   0.81607 
 C                     0.32402   0.72033  -0.44676 
 N                    -0.37722   2.89244   0.26738 
 C                    -0.86715   2.78377  -1.09685 
 C                    -0.10515   1.5853   -1.66772 
 C                    -0.50502   3.9947    1.04772 
 C                    -0.91003   5.28596   0.3133 
 N                    -0.69743   5.19735  -1.11946 
 C                    -0.70134   4.07515  -1.88947 
 C                    -0.20385   6.51734   0.92909 
 C                    -0.86715   7.83053   0.50014 
 C                     1.3065    6.53038   0.68049 
 O                    -0.60728   4.09008  -3.11322 
 O                    -0.31969   3.99075   2.26877 
 H                    -5.00514  -0.23496  -1.46139 
 H                    -5.55924  -1.09717   0.80618 
 H                    -3.75159  -1.76793   2.38296 
 H                    -2.64707  -0.02963  -2.17734 
 H                    -1.02743  -2.20388   2.44318 
 H                     0.9995   -1.17748   1.31116 
 H                     1.95062  -2.55862  -1.08083 
 H                    -0.77661  -1.94431  -2.20866 
 H                     0.71973  -1.04245  -2.39008 
 H                     1.99334  -5.40059   0.52248 
 H                     0.66127  -6.06373  -1.64456 
 H                     0.36559  -6.39754   2.0106 
 H                     0.72383  -8.05407  -0.56828 
 H                     0.43154  -8.67218   1.05603 
 H                     1.94825  -7.82516   0.70077 
 H                    -1.76687  -7.37881   1.20538 
 H                    -1.78208  -5.61416   1.05245 
 H                    -1.5517   -6.62928  -0.38615 
 H                     5.00514   0.23496  -1.46139 
 H                     5.55924   1.09717   0.80618 
 H                     3.75159   1.76793   2.38296 
 H                     2.64707   0.02963  -2.17734 
 H                     1.02743   2.20388   2.44318 
 H                    -0.9995    1.17748   1.31116 
 H                    -1.95062   2.55862  -1.08083 
 H                     0.77661   1.94431  -2.20866 
 H                    -0.71973   1.04245  -2.39008 
 H                    -1.99334   5.40059   0.52248 
 H                    -0.66127   6.06373  -1.64456 
 H                    -0.36559   6.39754   2.0106 
 H                    -0.72383   8.05407  -0.56828 
 H                    -1.94825   7.82516   0.70077 
 H                    -0.43154   8.67218   1.05603 
 H                     1.5517    6.62928  -0.38615 
 H                     1.78208   5.61416   1.05245 
 H                     1.76687   7.37881   1.20538 
 
 Stoichiometry    C32H36N6O4
 Framework group  C2[X(C32H36N6O4)]
 Deg. of freedom   115
 Full point group                 C2      NOp   2
 Largest Abelian subgroup         C2      NOp   2
 Largest concise Abelian subgroup C2      NOp   2
                         Standard orientation:                         
 ---------------------------------------------------------------------
 Center     Atomic      Atomic             Coordinates (Angstroms)
 Number     Number       Type             X           Y           Z
 ---------------------------------------------------------------------
      1          6           0       -4.206858    0.502067    0.768514
      2          6           0       -4.515613    0.990783   -0.505301
      3          6           0       -3.507498    1.367202   -1.398285
      4          6           0       -2.175504    1.229364   -0.988853
      5          6           0       -1.844585    0.715590    0.282245
      6          6           0       -2.867392    0.372821    1.166133
      7          7           0       -1.027050    1.501942   -1.710985
      8          6           0        0.094689    1.552416   -0.816070
      9          6           0       -0.324022    0.720325    0.446758
     10          7           0        0.377220    2.892438   -0.267384
     11          6           0        0.867148    2.783769    1.096847
     12          6           0        0.105148    1.585302    1.667717
     13          6           0        0.505017    3.994697   -1.047717
     14          6           0        0.910029    5.285955   -0.313304
     15          7           0        0.697431    5.197347    1.119462
     16          6           0        0.701339    4.075150    1.889473
     17          6           0        0.203853    6.517336   -0.929086
     18          6           0        0.867148    7.830526   -0.500139
     19          6           0       -1.306501    6.530382   -0.680488
     20          8           0        0.607279    4.090083    3.113218
     21          8           0        0.319687    3.990752   -2.268769
     22          6           0        4.206858   -0.502067    0.768514
     23          6           0        4.515613   -0.990783   -0.505301
     24          6           0        3.507498   -1.367202   -1.398285
     25          6           0        2.175504   -1.229364   -0.988853
     26          6           0        1.844585   -0.715590    0.282245
     27          6           0        2.867392   -0.372821    1.166133
     28          7           0        1.027050   -1.501942   -1.710985
     29          6           0       -0.094689   -1.552416   -0.816070
     30          6           0        0.324022   -0.720325    0.446758
     31          7           0       -0.377220   -2.892438   -0.267384
     32          6           0       -0.867148   -2.783769    1.096847
     33          6           0       -0.105148   -1.585302    1.667717
     34          6           0       -0.505017   -3.994697   -1.047717
     35          6           0       -0.910029   -5.285955   -0.313304
     36          7           0       -0.697431   -5.197347    1.119462
     37          6           0       -0.701339   -4.075150    1.889473
     38          6           0       -0.203853   -6.517336   -0.929086
     39          6           0       -0.867148   -7.830526   -0.500139
     40          6           0        1.306501   -6.530382   -0.680488
     41          8           0       -0.607279   -4.090083    3.113218
     42          8           0       -0.319687   -3.990752   -2.268769
     43          1           0       -5.005142    0.234960    1.461388
     44          1           0       -5.559240    1.097168   -0.806184
     45          1           0       -3.751589    1.767926   -2.382960
     46          1           0       -2.647073    0.029628    2.177338
     47          1           0       -1.027431    2.203880   -2.443178
     48          1           0        0.999499    1.177477   -1.311164
     49          1           0        1.950624    2.558621    1.080830
     50          1           0       -0.776608    1.944311    2.208663
     51          1           0        0.719731    1.042447    2.390077
     52          1           0        1.993344    5.400594   -0.522475
     53          1           0        0.661274    6.063732    1.644556
     54          1           0        0.365592    6.397543   -2.010597
     55          1           0        0.723826    8.054067    0.568280
     56          1           0        0.431538    8.672175   -1.056027
     57          1           0        1.948253    7.825164   -0.700768
     58          1           0       -1.766870    7.378808   -1.205375
     59          1           0       -1.782078    5.614155   -1.052455
     60          1           0       -1.551697    6.629277    0.386149
     61          1           0        5.005142   -0.234960    1.461388
     62          1           0        5.559240   -1.097168   -0.806184
     63          1           0        3.751589   -1.767926   -2.382960
     64          1           0        2.647073   -0.029628    2.177338
     65          1           0        1.027431   -2.203880   -2.443178
     66          1           0       -0.999499   -1.177477   -1.311164
     67          1           0       -1.950624   -2.558621    1.080830
     68          1           0        0.776608   -1.944311    2.208663
     69          1           0       -0.719731   -1.042447    2.390077
     70          1           0       -1.993344   -5.400594   -0.522475
     71          1           0       -0.661274   -6.063732    1.644556
     72          1           0       -0.365592   -6.397543   -2.010597
     73          1           0       -0.723826   -8.054067    0.568280
     74          1           0       -1.948253   -7.825164   -0.700768
     75          1           0       -0.431538   -8.672175   -1.056027
     76          1           0        1.551697   -6.629277    0.386149
     77          1           0        1.782078   -5.614155   -1.052455
     78          1           0        1.766870   -7.378808   -1.205375
 ---------------------------------------------------------------------
 Rotational constants (GHZ):      0.1649513      0.0531196      0.0484828
 Standard basis: 6-31+G(d,p) (6D, 7F)
 There are   489 symmetry adapted basis functions of A   symmetry.
 There are   489 symmetry adapted basis functions of B   symmetry.
 Integral buffers will be    131072 words long.
 Raffenetti 2 integral format.
 Two-electron integral symmetry is turned on.
   978 basis functions,  1596 primitive gaussians,   978 cartesian basis functions
   151 alpha electrons      151 beta electrons
       nuclear repulsion energy      5282.8346419790 Hartrees.
 NAtoms=   78 NActive=   78 NUniq=   39 SFac= 3.00D+00 NAtFMM=   80 NAOKFM=F Big=F
 ------------------------------------------------------------------------------
 Polarizable Continuum Model (PCM)
 =================================
 Model                : PCM.
 Atomic radii         : UFF (Universal Force Field).
 Polarization charges : Total charges.
 Charge compensation  : None.
 Solution method      : Matrix inversion.
 Cavity type          : Scaled VdW (van der Waals Surface) (Alpha=1.100).
 Cavity algorithm     : GePol (No added spheres)
                        Default sphere list used, NSphG=   78.
                        Lebedev-Laikov grids with approx.  5.0 points / Ang**2.
                        Smoothing algorithm: Karplus/York (Gamma=1.0000).
                        Polarization charges: spherical gaussians, with
                                              point-specific exponents (IZeta= 3).
                        Self-potential: point-specific (ISelfS= 7).
                        Self-field    : sphere-specific E.n sum rule (ISelfD= 2).
 Solvent              : Chloroform, Eps=   4.711300 Eps(inf)=   2.090627
 ------------------------------------------------------------------------------
 One-electron integrals computed using PRISM.
 NBasis=   978 RedAO= T  NBF=   489   489
 NBsUse=   968 1.00D-06 NBFU=   485   483
 Harris functional with IExCor=20419 diagonalized for initial guess.
 ExpMin= 4.38D-02 ExpMax= 5.48D+03 ExpMxC= 8.25D+02 IAcc=2 IRadAn=         0 AccDes= 0.00D+00
 HarFok:  IExCor=20419 AccDes= 0.00D+00 IRadAn=         0 IDoV= 1
 ScaDFX=  1.000000  1.000000  1.000000  1.000000
 FoFCou: FMM=F IPFlag=           0 FMFlag=      100000 FMFlg1=           0
         NFxFlg=           0 DoJE=T BraDBF=F KetDBF=T FulRan=T
         Omega=  0.000000  0.000000  1.000000  0.000000  0.000000 ICntrl=     500 IOpCl=  0
         NMat0=    1 NMatS0=    1 NMatT0=    0 NMatD0=    1 NMtDS0=    0 NMtDT0=    0
         I1Cent=           4 NGrid=           0.
 Petite list used in FoFCou.
 Initial guess orbital symmetries:
       Occupied  (B) (A) (A) (B) (B) (A) (B) (A) (B) (A) (A) (B)
                 (B) (A) (A) (B) (B) (A) (A) (B) (A) (B) (B) (A)
                 (A) (B) (A) (B) (B) (A) (A) (B) (B) (A) (A) (B)
                 (A) (B) (A) (B) (A) (B) (A) (B) (A) (B) (A) (B)
                 (B) (A) (B) (A) (A) (B) (A) (B) (A) (B) (B) (A)
                 (B) (A) (A) (B) (A) (B) (A) (B) (A) (B) (A) (B)
                 (A) (B) (A) (A) (B) (B) (B) (A) (A) (A) (B) (B)
                 (A) (B) (A) (B) (A) (B) (A) (B) (A) (B) (A) (A)
                 (B) (B) (A) (B) (B) (A) (A) (B) (A) (B) (A) (B)
                 (B) (A) (B) (A) (A) (A) (B) (A) (B) (B) (B) (A)
                 (A) (B) (A) (A) (B) (B) (A) (B) (A) (B) (B) (A)
                 (B) (A) (A) (B) (A) (B) (A) (B) (A) (B) (A) (A)
                 (B) (A) (B) (A) (B) (A) (B)
       Virtual   (B) (A) (A) (B) (B) (A) (A) (B) (A) (A) (B) (B)
                 (A) (B) (A) (B) (A) (A) (B) (B) (B) (A) (A) (B)
                 (A) (A) (B) (A) (B) (B) (A) (B) (B) (A) (B) (A)
                 (A) (B) (A) (B) (A) (B) (A) (B) (A) (B) (B) (A)
                 (B) (A) (A) (B) (A) (B) (A) (B) (A) (A) (B) (A)
                 (B) (B) (A) (A) (A) (B) (A) (B) (B) (B) (A) (A)
                 (B) (A) (B) (A) (B) (A) (B) (B) (A) (A) (B) (A)
                 (B) (A) (B) (B) (A) (A) (B) (A) (A) (B) (B) (A)
                 (B) (A) (B) (B) (A) (B) (A) (A) (B) (A) (B) (B)
                 (A) (B) (A) (B) (A) (B) (A) (A) (B) (A) (B) (A)
                 (B) (A) (B) (B) (A) (A) (B) (B) (A) (B) (A) (B)
                 (A) (A) (B) (A) (B) (A) (B) (B) (A) (A) (B) (A)
                 (B) (B) (A) (A) (B) (B) (A) (B) (A) (A) (B) (B)
                 (A) (A) (B) (A) (B) (A) (B) (A) (B) (A) (B) (B)
                 (A) (B) (A) (B) (A) (B) (A) (B) (A) (A) (B) (B)
                 (B) (A) (B) (A) (A) (B) (B) (A) (A) (B) (A) (B)
                 (A) (A) (B) (A) (A) (B) (B) (B) (A) (A) (A) (B)
                 (B) (A) (B) (A) (B) (A) (A) (B) (A) (B) (B) (B)
                 (A) (A) (A) (B) (B) (A) (B) (A) (B) (B) (A) (A)
                 (B) (A) (B) (B) (A) (B) (A) (B) (B) (A) (A) (B)
                 (A) (A) (B) (A) (B) (B) (A) (B) (A) (A) (B) (B)
                 (A) (A) (B) (A) (B) (B) (A) (B) (A) (A) (B) (B)
                 (A) (B) (A) (B) (A) (B) (B) (A) (A) (B) (A) (A)
                 (B) (A) (B) (A) (B) (B) (A) (B) (A) (A) (A) (B)
                 (B) (A) (B) (A) (B) (A) (B) (A) (A) (B) (B) (A)
                 (B) (B) (A) (B) (B) (A) (A) (B) (A) (B) (B) (A)
                 (A) (A) (A) (B) (B) (A) (B) (A) (B) (A) (B) (A)
                 (A) (B) (A) (B) (A) (B) (B) (A) (B) (A) (B) (A)
                 (B) (A) (B) (A) (B) (A) (B) (A) (B) (B) (A) (B)
                 (A) (B) (A) (A) (B) (B) (A) (A) (B) (A) (B) (A)
                 (B) (A) (B) (B) (A) (B) (A) (B) (A) (A) (B) (B)
                 (A) (B) (A) (A) (B) (A) (B) (B) (B) (A) (A) (A)
                 (B) (A) (A) (B) (B) (A) (A) (B) (B) (A) (A) (B)
                 (B) (A) (B) (A) (B) (B) (A) (A) (B) (B) (A) (B)
                 (A) (A) (A) (B) (B) (B) (A) (A) (A) (B) (B) (A)
                 (B) (A) (B) (A) (B) (A) (B) (A) (B) (B) (A) (B)
                 (A) (A) (B) (B) (A) (B) (A) (A) (B) (A) (B) (A)
                 (B) (A) (A) (B) (B) (A) (B) (B) (A) (B) (A) (B)
                 (A) (A) (B) (B) (A) (A) (B) (B) (A) (A) (B) (A)
                 (B) (A) (B) (B) (A) (B) (A) (B) (A) (B) (A) (A)
                 (B) (A) (A) (B) (A) (B) (A) (B) (A) (B) (B) (B)
                 (A) (B) (A) (A) (B) (A) (B) (A) (B) (B) (A) (A)
                 (B) (B) (A) (B) (A) (A) (B) (B) (A) (B) (A) (B)
                 (A) (A) (B) (A) (A) (B) (B) (A) (B) (A) (B) (A)
                 (B) (B) (A) (A) (A) (B) (B) (A) (A) (B) (B) (A)
                 (B) (A) (B) (A) (B) (A) (B) (B) (A) (A) (B) (A)
                 (B) (A) (B) (B) (A) (B) (A) (A) (B) (A) (B) (A)
                 (B) (A) (B) (A) (B) (A) (A) (B) (A) (A) (B) (B)
                 (A) (B) (A) (B) (B) (A) (B) (A) (B) (A) (B) (A)
                 (B) (A) (B) (A) (B) (A) (A) (B) (B) (A) (B) (A)
                 (B) (A) (A) (B) (A) (B) (A) (B) (A) (B) (A) (A)
                 (B) (B) (A) (B) (A) (B) (A) (B) (A) (B) (A) (B)
                 (B) (A) (B) (A) (B) (A) (B) (A) (A) (B) (B) (A)
                 (A) (A) (B) (B) (A) (B) (A) (B) (A) (A) (B) (B)
                 (A) (A) (B) (B) (B) (A) (A) (B) (A) (B) (A) (B)
                 (B) (A) (A) (B) (A) (B) (B) (A) (A) (B) (B) (A)
                 (A) (B) (B) (A) (B) (A) (B) (A) (B) (B) (A) (A)
                 (B) (A) (B) (B) (A) (A) (B) (A) (B) (B) (A) (B)
                 (A) (A) (A) (B) (A) (B) (A) (B) (A) (B) (B) (A)
                 (A) (B) (B) (A) (B) (A) (B) (A) (B) (A) (B) (A)
                 (A) (A) (B) (B) (B) (A) (B) (A) (A) (B) (B) (A)
                 (B) (A) (B) (A) (B) (A) (B) (B) (A) (A) (B) (A)
                 (B) (A) (B) (B) (A) (B) (A) (B) (A) (A) (B) (A)
                 (B) (A) (B) (A) (B) (B) (A) (A) (B) (A) (B) (A)
                 (B) (A) (B) (A) (B) (A) (B) (A) (B) (B) (A) (A)
                 (B) (A) (B) (A) (B) (A) (B) (B) (A) (A) (B) (B)
                 (A) (A) (B) (A) (A) (B) (B) (A) (B) (A) (B) (A)
                 (B) (A) (B) (A) (B) (A) (B) (B) (A) (A) (B) (B)
                 (A)
 The electronic state of the initial guess is 1-A.
 Requested convergence on RMS density matrix=1.00D-08 within 128 cycles.
 Requested convergence on MAX density matrix=1.00D-06.
 Requested convergence on             energy=1.00D-06.
 No special actions if energy rises.
 FoFJK:  IHMeth= 1 ICntrl=     0 DoSepK=T KAlg= 1 I1Cent= 0 FoldK=F
 FoFJK:  IHMeth= 1 ICntrl=     0 DoSepK=T KAlg= 1 I1Cent= 0 FoldK=F
 FoFJK:  IHMeth= 1 ICntrl=     0 DoSepK=T KAlg= 1 I1Cent= 0 FoldK=F
 FoFJK:  IHMeth= 1 ICntrl=     0 DoSepK=T KAlg= 1 I1Cent= 0 FoldK=F
 FoFJK:  IHMeth= 1 ICntrl=     0 DoSepK=T KAlg= 1 I1Cent= 0 FoldK=F
 FoFJK:  IHMeth= 1 ICntrl=     0 DoSepK=T KAlg= 1 I1Cent= 0 FoldK=F
 FoFJK:  IHMeth= 1 ICntrl=     0 DoSepK=T KAlg= 1 I1Cent= 0 FoldK=F
 FoFJK:  IHMeth= 1 ICntrl=     0 DoSepK=T KAlg= 1 I1Cent= 0 FoldK=F
 FoFJK:  IHMeth= 1 ICntrl=     0 DoSepK=T KAlg= 1 I1Cent= 0 FoldK=F
 FoFJK:  IHMeth= 1 ICntrl=     0 DoSepK=T KAlg= 1 I1Cent= 0 FoldK=F
 FoFJK:  IHMeth= 1 ICntrl=     0 DoSepK=T KAlg= 1 I1Cent= 0 FoldK=F
 FoFJK:  IHMeth= 1 ICntrl=     0 DoSepK=T KAlg= 1 I1Cent= 0 FoldK=F
 FoFJK:  IHMeth= 1 ICntrl=     0 DoSepK=T KAlg= 1 I1Cent= 0 FoldK=F
 FoFJK:  IHMeth= 1 ICntrl=     0 DoSepK=T KAlg= 1 I1Cent= 0 FoldK=F
 FoFJK:  IHMeth= 1 ICntrl=     0 DoSepK=T KAlg= 1 I1Cent= 0 FoldK=F
 FoFJK:  IHMeth= 1 ICntrl=     0 DoSepK=T KAlg= 1 I1Cent= 0 FoldK=F
 Error on total polarization charges =  0.02143
 SCF Done:  E(RCAM-B3LYP) =  -1869.78257675     A.U. after   16 cycles
             Convg  =    0.4972D-08             -V/T =  2.0093
 ExpMin= 4.38D-02 ExpMax= 5.48D+03 ExpMxC= 8.25D+02 IAcc=3 IRadAn=         5 AccDes= 0.00D+00
 HarFok:  IExCor=  205 AccDes= 0.00D+00 IRadAn=         5 IDoV=-2
 ScaDFX=  1.000000  1.000000  1.000000  1.000000
 Range of M.O.s used for correlation:    43   968
 NBasis=   978 NAE=   151 NBE=   151 NFC=    42 NFV=     0
 NROrb=    926 NOA=   109 NOB=   109 NVA=   817 NVB=   817

 **** Warning!!: The largest alpha MO coefficient is  0.93087484D+02

 Would need an additional357048000000 words for in-memory AO integral storage.
 NEqPCM:  Using non-equilibrium solvation (IEInf=1, Eps=   4.7113, EpsInf=   2.0906)
 Orbital symmetries:
       Occupied  (A) (B) (B) (A) (A) (B) (A) (B) (B) (A) (A) (B)
                 (A) (B) (B) (A) (B) (A) (A) (B) (B) (A) (A) (B)
                 (A) (B) (A) (B) (A) (B) (A) (B) (A) (B) (B) (A)
                 (A) (B) (B) (A) (A) (B) (A) (B) (A) (B) (A) (B)
                 (A) (B) (B) (A) (A) (B) (A) (B) (A) (B) (A) (B)
                 (B) (A) (A) (B) (A) (B) (A) (B) (A) (A) (B) (B)
                 (A) (B) (A) (B) (A) (B) (A) (B) (A) (B) (A) (B)
                 (A) (B) (A) (B) (A) (B) (A) (B) (A) (B) (A) (B)
                 (A) (B) (A) (B) (A) (B) (A) (B) (B) (A) (B) (A)
                 (A) (B) (A) (A) (B) (B) (A) (A) (B) (B) (A) (B)
                 (A) (A) (B) (B) (A) (B) (A) (A) (B) (B) (A) (B)
                 (A) (B) (A) (B) (A) (B) (A) (B) (A) (A) (B) (B)
                 (A) (B) (A) (B) (A) (A) (B)
       Virtual   (B) (A) (A) (B) (A) (B) (A) (B) (B) (A) (B) (A)
                 (A) (A) (B) (A) (B) (B) (A) (B) (A) (B) (B) (A)
                 (A) (B) (A) (A) (B) (B) (B) (A) (B) (A) (B) (A)
                 (A) (B) (A) (B) (A) (B) (A) (B) (A) (B) (B) (A)
                 (B) (A) (A) (B) (A) (A) (B) (B) (A) (B) (A) (A)
                 (A) (B) (B) (A) (A) (B) (A) (B) (B) (A) (B) (A)
                 (B) (B) (A) (A) (B) (A) (B) (A) (B) (A) (B) (A)
                 (B) (B) (A) (B) (A) (A) (B) (B) (A) (B) (A) (B)
                 (A) (B) (A) (B) (A) (A) (A) (B) (B) (A) (B) (B)
                 (A) (B) (B) (A) (A) (A) (B) (A) (B) (A) (B) (A)
                 (B) (A) (B) (A) (B) (A) (A) (B) (B) (A) (B) (B)
                 (A) (B) (B) (A) (A) (B) (A) (B) (A) (B) (B) (A)
                 (A) (B) (A) (A) (B) (A) (B) (A) (B) (B) (A) (B)
                 (A) (B) (A) (B) (A) (B) (A) (A) (B) (A) (A) (B)
                 (B) (A) (B) (B) (A) (B) (B) (A) (A) (A) (B) (B)
                 (A) (B) (A) (B) (A) (B) (A) (A) (B) (A) (B) (A)
                 (B) (A) (B) (A) (A) (B) (B) (A) (B) (A) (B) (A)
                 (B) (A) (B) (A) (A) (A) (B) (B) (B) (A) (B) (B)
                 (A) (A) (A) (B) (B) (A) (B) (A) (B) (A) (B) (A)
                 (B) (A) (B) (A) (B) (B) (A) (B) (B) (A) (A) (B)
                 (A) (B) (A) (A) (B) (B) (A) (A) (B) (B) (A) (B)
                 (A) (B) (A) (A) (B) (B) (A) (B) (A) (B) (A) (B)
                 (A) (B) (A) (B) (B) (A) (A) (B) (A) (A) (B) (A)
                 (B) (A) (A) (B) (B) (B) (A) (B) (A) (B) (A) (A)
                 (B) (A) (B) (A) (B) (A) (B) (A) (A) (B) (B) (A)
                 (B) (B) (A) (B) (A) (B) (A) (B) (A) (B) (B) (A)
                 (A) (A) (A) (B) (B) (A) (B) (A) (A) (B) (B) (A)
                 (A) (B) (A) (A) (B) (B) (B) (A) (B) (B) (A) (A)
                 (B) (A) (B) (A) (B) (A) (B) (A) (B) (A) (B) (B)
                 (A) (B) (A) (B) (A) (B) (A) (A) (B) (A) (B) (A)
                 (B) (A) (A) (B) (B) (A) (B) (A) (B) (B) (A) (B)
                 (A) (B) (B) (A) (A) (A) (B) (B) (A) (A) (B) (B)
                 (A) (A) (B) (A) (B) (A) (A) (B) (B) (B) (A) (A)
                 (B) (A) (B) (A) (B) (B) (A) (A) (B) (A) (B) (B)
                 (A) (A) (A) (B) (B) (A) (B) (B) (A) (B) (A) (A)
                 (B) (A) (B) (A) (B) (A) (A) (B) (B) (B) (A) (A)
                 (B) (B) (A) (B) (A) (B) (A) (A) (B) (B) (A) (A)
                 (A) (B) (A) (B) (B) (A) (B) (B) (A) (A) (B) (A)
                 (B) (B) (A) (B) (A) (A) (B) (B) (A) (B) (A) (A)
                 (B) (A) (B) (B) (A) (B) (A) (B) (A) (B) (A) (A)
                 (B) (A) (B) (A) (B) (A) (B) (A) (B) (A) (A) (B)
                 (B) (A) (A) (B) (B) (A) (B) (A) (B) (B) (A) (B)
                 (A) (B) (A) (B) (A) (A) (B) (B) (A) (B) (A) (A)
                 (B) (A) (B) (A) (B) (A) (B) (A) (A) (B) (B) (A)
                 (B) (A) (B) (A) (B) (A) (A) (B) (B) (A) (B) (A)
                 (B) (B) (A) (B) (A) (A) (B) (A) (B) (B) (A) (B)
                 (A) (A) (B) (A) (B) (B) (A) (A) (B) (A) (B) (A)
                 (B) (A) (B) (A) (A) (B) (A) (A) (B) (A) (B) (B)
                 (B) (A) (A) (B) (A) (B) (A) (B) (A) (B) (B) (A)
                 (B) (B) (A) (A) (B) (A) (B) (A) (B) (A) (B) (A)
                 (A) (B) (A) (B) (A) (B) (A) (B) (A) (B) (A) (B)
                 (A) (B) (A) (B) (B) (A) (A) (B) (A) (A) (B) (B)
                 (B) (A) (B) (A) (B) (A) (A) (B) (B) (B) (A) (A)
                 (B) (A) (A) (B) (A) (B) (A) (B) (A) (A) (B) (A)
                 (B) (B) (A) (B) (B) (A) (A) (B) (B) (A) (A) (A)
                 (B) (A) (B) (B) (B) (A) (B) (A) (B) (A) (B) (A)
                 (A) (B) (B) (A) (B) (B) (A) (A) (B) (A) (B) (A)
                 (B) (B) (A) (A) (B) (A) (B) (A) (B) (A) (B) (A)
                 (B) (A) (A) (B) (A) (B) (A) (B) (A) (B) (B) (A)
                 (A) (B) (B) (A) (B) (A) (B) (A) (B) (A) (A) (B)
                 (A) (B) (B) (A) (A) (B) (A) (B) (A) (B) (B) (A)
                 (B) (B) (A) (A) (B) (B) (A) (B) (A) (A) (B) (A)
                 (B) (B) (A) (B) (A) (B) (A) (B) (A) (A) (B) (A)
                 (B) (A) (B) (A) (B) (B) (A) (A) (B) (B) (A) (A)
                 (A) (B) (B) (A) (B) (A) (B) (A) (B) (B) (A) (A)
                 (B) (A) (B) (A) (B) (A) (B) (A) (B) (B) (A) (B)
                 (A) (A) (B) (A) (B) (A) (B) (B) (A) (A) (A) (B)
                 (B) (A) (B) (A) (B) (A) (B) (B) (A) (A) (B) (B)
                 (A)
   200 initial guesses have been made.
 Convergence on wavefunction:    0.001000000000000
 Iteration     1 Dimension   200 NMult   200
 CISAX will form    23 AO SS matrices at one time.
 FoFJK:  IHMeth= 1 ICntrl=     0 DoSepK=T KAlg= 1 I1Cent= 0 FoldK=F
 FoFJK:  IHMeth= 1 ICntrl=     0 DoSepK=T KAlg= 1 I1Cent= 0 FoldK=F
 FoFJK:  IHMeth= 1 ICntrl=     0 DoSepK=T KAlg= 1 I1Cent= 0 FoldK=F
 FoFJK:  IHMeth= 1 ICntrl=     0 DoSepK=T KAlg= 1 I1Cent= 0 FoldK=F
 FoFJK:  IHMeth= 1 ICntrl=     0 DoSepK=T KAlg= 1 I1Cent= 0 FoldK=F
 FoFJK:  IHMeth= 1 ICntrl=     0 DoSepK=T KAlg= 1 I1Cent= 0 FoldK=F
 FoFJK:  IHMeth= 1 ICntrl=     0 DoSepK=T KAlg= 1 I1Cent= 0 FoldK=F
 FoFJK:  IHMeth= 1 ICntrl=     0 DoSepK=T KAlg= 1 I1Cent= 0 FoldK=F
 FoFJK:  IHMeth= 1 ICntrl=     0 DoSepK=T KAlg= 1 I1Cent= 0 FoldK=F
 FoFJK:  IHMeth= 1 ICntrl=     0 DoSepK=T KAlg= 1 I1Cent= 0 FoldK=F
 FoFJK:  IHMeth= 1 ICntrl=     0 DoSepK=T KAlg= 1 I1Cent= 0 FoldK=F
 FoFJK:  IHMeth= 1 ICntrl=     0 DoSepK=T KAlg= 1 I1Cent= 0 FoldK=F
 FoFJK:  IHMeth= 1 ICntrl=     0 DoSepK=T KAlg= 1 I1Cent= 0 FoldK=F
 FoFJK:  IHMeth= 1 ICntrl=     0 DoSepK=T KAlg= 1 I1Cent= 0 FoldK=F
 FoFJK:  IHMeth= 1 ICntrl=     0 DoSepK=T KAlg= 1 I1Cent= 0 FoldK=F
 FoFJK:  IHMeth= 1 ICntrl=     0 DoSepK=T KAlg= 1 I1Cent= 0 FoldK=F
 FoFJK:  IHMeth= 1 ICntrl=     0 DoSepK=T KAlg= 1 I1Cent= 0 FoldK=F
 FoFJK:  IHMeth= 1 ICntrl=     0 DoSepK=T KAlg= 1 I1Cent= 0 FoldK=F
 New state      1 was old state      2
 New state      2 was old state      1
 New state      5 was old state     10
 New state      6 was old state     14
 New state      7 was old state      5
 New state      8 was old state      7
 New state      9 was old state     12
 New state     10 was old state     15
 New state     11 was old state      6
 New state     12 was old state      8
 New state     13 was old state     18
 New state     14 was old state     16
 New state     15 was old state     26
 New state     16 was old state     29
 New state     17 was old state     11
 New state     18 was old state      9
 New state     19 was old state     25
 New state     20 was old state     19
 New state     21 was old state     27
 New state     22 was old state     31
 New state     24 was old state     21
 New state     25 was old state     30
 New state     26 was old state     34
 New state     27 was old state     49
 New state     28 was old state     17
 New state     29 was old state     47
 New state     30 was old state     45
 New state     31 was old state     28
 New state     32 was old state     24
 New state     33 was old state     37
 New state     34 was old state     38
 New state     35 was old state     43
 New state     36 was old state     42
 New state     37 was old state     22
 New state     38 was old state     32
 New state     39 was old state     13
 New state     40 was old state     36
 New state     41 was old state     48
 New state     42 was old state     41
 New state     43 was old state     39
 New state     44 was old state     33
 New state     45 was old state     35
 No map to state     46
 No map to state     47
 No map to state     48
 New state     49 was old state     20
 New state     50 was old state     40
 Iteration     2 Dimension   300 NMult   300
 FoFJK:  IHMeth= 1 ICntrl=     0 DoSepK=T KAlg= 1 I1Cent= 0 FoldK=F
 FoFJK:  IHMeth= 1 ICntrl=     0 DoSepK=T KAlg= 1 I1Cent= 0 FoldK=F
 FoFJK:  IHMeth= 1 ICntrl=     0 DoSepK=T KAlg= 1 I1Cent= 0 FoldK=F
 FoFJK:  IHMeth= 1 ICntrl=     0 DoSepK=T KAlg= 1 I1Cent= 0 FoldK=F
 FoFJK:  IHMeth= 1 ICntrl=     0 DoSepK=T KAlg= 1 I1Cent= 0 FoldK=F
 FoFJK:  IHMeth= 1 ICntrl=     0 DoSepK=T KAlg= 1 I1Cent= 0 FoldK=F
 FoFJK:  IHMeth= 1 ICntrl=     0 DoSepK=T KAlg= 1 I1Cent= 0 FoldK=F
 FoFJK:  IHMeth= 1 ICntrl=     0 DoSepK=T KAlg= 1 I1Cent= 0 FoldK=F
 FoFJK:  IHMeth= 1 ICntrl=     0 DoSepK=T KAlg= 1 I1Cent= 0 FoldK=F
 FoFJK:  IHMeth= 1 ICntrl=     0 DoSepK=T KAlg= 1 I1Cent= 0 FoldK=F
 New state      3 was old state      7
 New state      4 was old state     10
 New state      5 was old state      3
 New state      6 was old state      4
 New state      7 was old state      5
 New state      8 was old state      6
 New state     10 was old state      8
 New state     13 was old state     30
 New state     14 was old state     13
 New state     15 was old state     27
 New state     16 was old state     28
 New state     17 was old state     14
 New state     18 was old state     15
 New state     19 was old state     34
 New state     20 was old state     45
 New state     21 was old state     16
 New state     22 was old state     19
 New state     23 was old state     18
 New state     24 was old state     17
 New state     25 was old state     20
 New state     26 was old state     33
 New state     27 was old state     22
 New state     28 was old state     21
 New state     29 was old state     24
 New state     30 was old state     23
 New state     31 was old state     49
 New state     32 was old state     29
 New state     33 was old state     25
 New state     34 was old state     26
 New state     35 was old state     40
 New state     36 was old state     38
 New state     37 was old state     32
 New state     38 was old state     31
 New state     39 was old state     36
 New state     40 was old state     47
 New state     41 was old state     35
 New state     42 was old state     46
 New state     43 was old state     41
 New state     44 was old state     42
 New state     45 was old state     37
 New state     46 was old state     39
 New state     47 was old state     48
 New state     48 was old state     50
 New state     49 was old state     44
 New state     50 was old state     43
 Iteration     3 Dimension   400 NMult   400
 FoFJK:  IHMeth= 1 ICntrl=     0 DoSepK=T KAlg= 1 I1Cent= 0 FoldK=F
 FoFJK:  IHMeth= 1 ICntrl=     0 DoSepK=T KAlg= 1 I1Cent= 0 FoldK=F
 FoFJK:  IHMeth= 1 ICntrl=     0 DoSepK=T KAlg= 1 I1Cent= 0 FoldK=F
 FoFJK:  IHMeth= 1 ICntrl=     0 DoSepK=T KAlg= 1 I1Cent= 0 FoldK=F
 FoFJK:  IHMeth= 1 ICntrl=     0 DoSepK=T KAlg= 1 I1Cent= 0 FoldK=F
 FoFJK:  IHMeth= 1 ICntrl=     0 DoSepK=T KAlg= 1 I1Cent= 0 FoldK=F
 FoFJK:  IHMeth= 1 ICntrl=     0 DoSepK=T KAlg= 1 I1Cent= 0 FoldK=F
 FoFJK:  IHMeth= 1 ICntrl=     0 DoSepK=T KAlg= 1 I1Cent= 0 FoldK=F
 FoFJK:  IHMeth= 1 ICntrl=     0 DoSepK=T KAlg= 1 I1Cent= 0 FoldK=F
 FoFJK:  IHMeth= 1 ICntrl=     0 DoSepK=T KAlg= 1 I1Cent= 0 FoldK=F
 New state      7 was old state      8
 New state      8 was old state      7
 New state      9 was old state     13
 New state     10 was old state     14
 New state     11 was old state     10
 New state     12 was old state      9
 New state     13 was old state     12
 New state     14 was old state     11
 New state     17 was old state     18
 New state     18 was old state     17
 New state     31 was old state     33
 New state     32 was old state     31
 New state     33 was old state     32
 New state     37 was old state     38
 New state     38 was old state     39
 New state     39 was old state     37
 New state     41 was old state     42
 New state     42 was old state     43
 New state     43 was old state     41
 New state     46 was old state     48
 New state     47 was old state     46
 New state     48 was old state     47
 Iteration     4 Dimension   500 NMult   500
 FoFJK:  IHMeth= 1 ICntrl=     0 DoSepK=T KAlg= 1 I1Cent= 0 FoldK=F
 FoFJK:  IHMeth= 1 ICntrl=     0 DoSepK=T KAlg= 1 I1Cent= 0 FoldK=F
 FoFJK:  IHMeth= 1 ICntrl=     0 DoSepK=T KAlg= 1 I1Cent= 0 FoldK=F
 FoFJK:  IHMeth= 1 ICntrl=     0 DoSepK=T KAlg= 1 I1Cent= 0 FoldK=F
 FoFJK:  IHMeth= 1 ICntrl=     0 DoSepK=T KAlg= 1 I1Cent= 0 FoldK=F
 FoFJK:  IHMeth= 1 ICntrl=     0 DoSepK=T KAlg= 1 I1Cent= 0 FoldK=F
 FoFJK:  IHMeth= 1 ICntrl=     0 DoSepK=T KAlg= 1 I1Cent= 0 FoldK=F
 FoFJK:  IHMeth= 1 ICntrl=     0 DoSepK=T KAlg= 1 I1Cent= 0 FoldK=F
 FoFJK:  IHMeth= 1 ICntrl=     0 DoSepK=T KAlg= 1 I1Cent= 0 FoldK=F
 FoFJK:  IHMeth= 1 ICntrl=     0 DoSepK=T KAlg= 1 I1Cent= 0 FoldK=F
 DiagDN has N=   500 LTot=  1530 but NE2=   249 cannot use DSYEVD.
 DiagDN has N=   500 LTot=  1530 but NE2=   249 cannot use DSYEVD.
 New state     27 was old state     28
 New state     28 was old state     27
 New state     29 was old state     30
 New state     30 was old state     29
 New state     49 was old state     50
 New state     50 was old state     49
 Iteration     5 Dimension   598 NMult   598
 FoFJK:  IHMeth= 1 ICntrl=     0 DoSepK=T KAlg= 1 I1Cent= 0 FoldK=F
 FoFJK:  IHMeth= 1 ICntrl=     0 DoSepK=T KAlg= 1 I1Cent= 0 FoldK=F
 FoFJK:  IHMeth= 1 ICntrl=     0 DoSepK=T KAlg= 1 I1Cent= 0 FoldK=F
 FoFJK:  IHMeth= 1 ICntrl=     0 DoSepK=T KAlg= 1 I1Cent= 0 FoldK=F
 FoFJK:  IHMeth= 1 ICntrl=     0 DoSepK=T KAlg= 1 I1Cent= 0 FoldK=F
 FoFJK:  IHMeth= 1 ICntrl=     0 DoSepK=T KAlg= 1 I1Cent= 0 FoldK=F
 FoFJK:  IHMeth= 1 ICntrl=     0 DoSepK=T KAlg= 1 I1Cent= 0 FoldK=F
 FoFJK:  IHMeth= 1 ICntrl=     0 DoSepK=T KAlg= 1 I1Cent= 0 FoldK=F
 FoFJK:  IHMeth= 1 ICntrl=     0 DoSepK=T KAlg= 1 I1Cent= 0 FoldK=F
 FoFJK:  IHMeth= 1 ICntrl=     0 DoSepK=T KAlg= 1 I1Cent= 0 FoldK=F
 DiagDN has N=   598 LTot=  1826 but NE2=   298 cannot use DSYEVD.
 DiagDN has N=   598 LTot=  1826 but NE2=   298 cannot use DSYEVD.
 Iteration     6 Dimension   656 NMult   656
 FoFJK:  IHMeth= 1 ICntrl=     0 DoSepK=T KAlg= 1 I1Cent= 0 FoldK=F
 FoFJK:  IHMeth= 1 ICntrl=     0 DoSepK=T KAlg= 1 I1Cent= 0 FoldK=F
 FoFJK:  IHMeth= 1 ICntrl=     0 DoSepK=T KAlg= 1 I1Cent= 0 FoldK=F
 FoFJK:  IHMeth= 1 ICntrl=     0 DoSepK=T KAlg= 1 I1Cent= 0 FoldK=F
 FoFJK:  IHMeth= 1 ICntrl=     0 DoSepK=T KAlg= 1 I1Cent= 0 FoldK=F
 FoFJK:  IHMeth= 1 ICntrl=     0 DoSepK=T KAlg= 1 I1Cent= 0 FoldK=F
 DiagDN has N=   656 LTot=  2000 but NE2=   327 cannot use DSYEVD.
 DiagDN has N=   656 LTot=  2000 but NE2=   327 cannot use DSYEVD.
 Iteration     7 Dimension   676 NMult   676
 FoFJK:  IHMeth= 1 ICntrl=     0 DoSepK=T KAlg= 1 I1Cent= 0 FoldK=F
 FoFJK:  IHMeth= 1 ICntrl=     0 DoSepK=T KAlg= 1 I1Cent= 0 FoldK=F
 DiagDN has N=   676 LTot=  2060 but NE2=   337 cannot use DSYEVD.
 DiagDN has N=   676 LTot=  2060 but NE2=   337 cannot use DSYEVD.
 Iteration     8 Dimension   684 NMult   684
 FoFJK:  IHMeth= 1 ICntrl=     0 DoSepK=T KAlg= 1 I1Cent= 0 FoldK=F
 FoFJK:  IHMeth= 1 ICntrl=     0 DoSepK=T KAlg= 1 I1Cent= 0 FoldK=F
 DiagDN has N=   684 LTot=  2084 but NE2=   341 cannot use DSYEVD.
 DiagDN has N=   684 LTot=  2084 but NE2=   341 cannot use DSYEVD.
 Iteration     9 Dimension   692 NMult   692
 FoFJK:  IHMeth= 1 ICntrl=     0 DoSepK=T KAlg= 1 I1Cent= 0 FoldK=F
 FoFJK:  IHMeth= 1 ICntrl=     0 DoSepK=T KAlg= 1 I1Cent= 0 FoldK=F
 DiagDN has N=   692 LTot=  2108 but NE2=   345 cannot use DSYEVD.
 DiagDN has N=   692 LTot=  2108 but NE2=   345 cannot use DSYEVD.
 ***********************************************************************
 Excited states from <AA,BB:AA,BB> singles matrix:
 ***********************************************************************
 
 Ground to excited state transition electric dipole moments (Au):
       state          X           Y           Z        Dip. S.      Osc.
         1        -1.1438      0.3762      0.0000      1.4498      0.1642
         2         0.0000      0.0000      0.5336      0.2848      0.0324
         3         1.0905      0.4897      0.0000      1.4291      0.1887
         4         0.0000      0.0000      0.6325      0.4000      0.0533
         5         0.0865      0.1286      0.0000      0.0240      0.0032
         6         0.0000      0.0000     -0.2662      0.0708      0.0095
         7         0.3835      0.1653      0.0000      0.1744      0.0240
         8         0.0000      0.0000      0.0860      0.0074      0.0010
         9         0.0000      0.0000     -0.0794      0.0063      0.0009
        10         0.0123     -0.1018      0.0000      0.0105      0.0015
        11         0.0000      0.0000     -0.2444      0.0597      0.0087
        12        -0.4779     -0.3589      0.0000      0.3572      0.0519
        13        -0.6980      0.0477      0.0000      0.4895      0.0721
        14         0.0000      0.0000     -0.1861      0.0346      0.0051
        15         0.0000      0.0000      0.2169      0.0470      0.0071
        16        -0.3066     -0.1177      0.0000      0.1078      0.0162
        17         1.3049      0.6161      0.0000      2.0824      0.3178
        18         0.0000      0.0000      0.6583      0.4334      0.0662
        19         1.3823      0.3601      0.0000      2.0404      0.3147
        20        -1.3082     -0.0453      0.0000      1.7135      0.2648
        21         0.0000      0.0000      0.5175      0.2678      0.0414
        22         0.0000      0.0000      0.9883      0.9767      0.1525
        23        -1.0578      0.8024      0.0000      1.7629      0.2780
        24         0.0000      0.0000      0.0005      0.0000      0.0000
        25         0.5812     -0.0236      0.0000      0.3383      0.0540
        26         0.0000      0.0000     -0.0338      0.0011      0.0002
        27         0.0000      0.0000     -0.5306      0.2815      0.0453
        28        -0.6903      0.4767      0.0000      0.7038      0.1132
        29         0.2255      0.7102      0.0000      0.5553      0.0899
        30         0.0000      0.0000      0.3350      0.1122      0.0182
        31        -0.7523      0.2800      0.0000      0.6444      0.1047
        32         0.0000      0.0000     -0.3339      0.1115      0.0181
        33         0.0945     -0.4334      0.0000      0.1968      0.0322
        34         0.0000      0.0000     -0.4064      0.1652      0.0271
        35         0.2177      0.4725      0.0000      0.2706      0.0444
        36         0.0000      0.0000      0.4730      0.2238      0.0369
        37         0.0000      0.0000      0.0954      0.0091      0.0015
        38         0.1988     -0.1610      0.0000      0.0654      0.0109
        39        -0.0996      0.0259      0.0000      0.0106      0.0018
        40         0.0000      0.0000     -0.6167      0.3803      0.0636
        41        -0.1188      0.3102      0.0000      0.1103      0.0185
        42         0.0000      0.0000      0.0127      0.0002      0.0000
        43         0.0000      0.0000      0.2970      0.0882      0.0149
        44        -0.0197     -0.1645      0.0000      0.0275      0.0046
        45         0.5032      0.2438      0.0000      0.3126      0.0533
        46         0.0000      0.0000     -0.2226      0.0496      0.0085
        47         0.0000      0.0000     -0.5480      0.3003      0.0515
        48        -0.1450     -0.7515      0.0000      0.5858      0.1005
        49        -0.0776      0.6704      0.0000      0.4554      0.0783
        50         0.0000      0.0000      1.0493      1.1010      0.1893
 Ground to excited state transition velocity dipole moments (Au):
       state          X           Y           Z        Dip. S.      Osc.
         1         0.1956     -0.0645      0.0000      0.0424      0.1664
         2         0.0000      0.0000     -0.0904      0.0082      0.0319
         3        -0.2109     -0.0976      0.0000      0.0540      0.1818
         4         0.0000      0.0000     -0.1233      0.0152      0.0506
         5        -0.0159     -0.0268      0.0000      0.0010      0.0032
         6         0.0000      0.0000      0.0492      0.0024      0.0080
         7        -0.0830     -0.0310      0.0000      0.0079      0.0253
         8         0.0000      0.0000     -0.0194      0.0004      0.0012
         9         0.0000      0.0000      0.0172      0.0003      0.0009
        10        -0.0086      0.0215      0.0000      0.0005      0.0017
        11         0.0000      0.0000      0.0497      0.0025      0.0075
        12         0.0975      0.0721      0.0000      0.0147      0.0449
        13         0.1516     -0.0088      0.0000      0.0231      0.0696
        14         0.0000      0.0000      0.0411      0.0017      0.0051
        15         0.0000      0.0000     -0.0470      0.0022      0.0065
        16         0.0666      0.0185      0.0000      0.0048      0.0141
        17        -0.2903     -0.1410      0.0000      0.1041      0.3033
        18         0.0000      0.0000     -0.1434      0.0206      0.0598
        19        -0.3178     -0.0836      0.0000      0.1080      0.3112
        20         0.2992      0.0082      0.0000      0.0896      0.2577
        21         0.0000      0.0000     -0.1172      0.0137      0.0395
        22         0.0000      0.0000     -0.2257      0.0509      0.1450
        23         0.2431     -0.1857      0.0000      0.0936      0.2638
        24         0.0000      0.0000     -0.0023      0.0000      0.0000
        25        -0.1382      0.0036      0.0000      0.0191      0.0532
        26         0.0000      0.0000      0.0089      0.0001      0.0002
        27         0.0000      0.0000      0.1246      0.0155      0.0429
        28         0.1621     -0.1128      0.0000      0.0390      0.1077
        29        -0.0523     -0.1691      0.0000      0.0313      0.0860
        30         0.0000      0.0000     -0.0787      0.0062      0.0170
        31         0.1798     -0.0669      0.0000      0.0368      0.1006
        32         0.0000      0.0000      0.0768      0.0059      0.0161
        33        -0.0205      0.1058      0.0000      0.0116      0.0316
        34         0.0000      0.0000      0.0962      0.0093      0.0251
        35        -0.0530     -0.1105      0.0000      0.0150      0.0407
        36         0.0000      0.0000     -0.1135      0.0129      0.0348
        37         0.0000      0.0000     -0.0229      0.0005      0.0014
        38        -0.0474      0.0384      0.0000      0.0037      0.0099
        39         0.0261     -0.0130      0.0000      0.0008      0.0023
        40         0.0000      0.0000      0.1510      0.0228      0.0607
        41         0.0288     -0.0769      0.0000      0.0067      0.0179
        42         0.0000      0.0000     -0.0002      0.0000      0.0000
        43         0.0000      0.0000     -0.0715      0.0051      0.0135
        44         0.0066      0.0418      0.0000      0.0018      0.0047
        45        -0.1251     -0.0580      0.0000      0.0190      0.0496
        46         0.0000      0.0000      0.0523      0.0027      0.0071
        47         0.0000      0.0000      0.1347      0.0181      0.0470
        48         0.0345      0.1832      0.0000      0.0348      0.0900
        49         0.0208     -0.1630      0.0000      0.0270      0.0698
        50         0.0000      0.0000     -0.2637      0.0695      0.1798
 Ground to excited state transition magnetic dipole moments (Au):
       state          X           Y           Z
         1         0.1546      1.5123      0.0000
         2         0.0000      0.0000     -0.3334
         3         0.1168      1.6884      0.0000
         4         0.0000      0.0000     -0.6071
         5        -0.3195      0.0788      0.0000
         6         0.0000      0.0000      1.1153
         7         0.3270      0.4146      0.0000
         8         0.0000      0.0000     -1.1676
         9         0.0000      0.0000     -1.2117
        10        -0.0179     -0.1732      0.0000
        11         0.0000      0.0000      0.0197
        12        -0.4627     -0.2275      0.0000
        13         0.4330     -0.7879      0.0000
        14         0.0000      0.0000      0.2208
        15         0.0000      0.0000     -1.1879
        16        -0.3670     -0.4485      0.0000
        17         0.3158      1.8336      0.0000
        18         0.0000      0.0000     -0.4925
        19         0.2718      1.9278      0.0000
        20        -0.1048     -0.2895      0.0000
        21         0.0000      0.0000     -1.1752
        22         0.0000      0.0000     -1.6876
        23         0.2904      1.7151      0.0000
        24         0.0000      0.0000      0.0091
        25        -0.5437     -0.7812      0.0000
        26         0.0000      0.0000     -0.0920
        27         0.0000      0.0000      0.3903
        28         0.3138      0.9822      0.0000
        29         0.2065     -0.9657      0.0000
        30         0.0000      0.0000     -0.2299
        31         1.1017      0.8315      0.0000
        32         0.0000      0.0000     -0.5026
        33        -0.0435     -0.2397      0.0000
        34         0.0000      0.0000     -0.5414
        35         0.3448     -0.5768      0.0000
        36         0.0000      0.0000     -0.3523
        37         0.0000      0.0000      0.4577
        38         1.2134      0.3066      0.0000
        39        -1.7555      0.2642      0.0000
        40         0.0000      0.0000      0.2030
        41         0.8594     -0.0569      0.0000
        42         0.0000      0.0000     -0.2269
        43         0.0000      0.0000      0.4197
        44        -0.1107     -0.0562      0.0000
        45         1.0408     -0.2437      0.0000
        46         0.0000      0.0000     -0.3226
        47         0.0000      0.0000     -0.0005
        48        -2.1690      0.3350      0.0000
        49         2.0777     -0.2104      0.0000
        50         0.0000      0.0000     -0.0235
 <0|del|b> * <b|rxdel|0> + <0|del|b> * <b|delr+rdel|0>
 Rotatory Strengths (R) in cgs (10**-40 erg-esu-cm/Gauss)
       state          XX          YY          ZZ    R(velocity)
         1      -292.8762    142.1496   -129.2311    -93.3192
 Total R(velocity) tensor for State=          1
                 1             2             3 
      1  -0.292876D+03 -0.888316D+03  0.000000D+00
      2   0.468665D+02  0.142150D+03 -0.580860D-05
      3  -0.175394D-05 -0.988785D-05 -0.129231D+03
 R(velocity) tensor in inp. orien. for State=          1
                 1             2             3 
      1  -0.292876D+03  0.888316D+03  0.000000D+00
      2  -0.468665D+02  0.142150D+03 -0.580860D-05
      3   0.175394D-05 -0.988785D-05 -0.129231D+03
         2       156.4083    -31.4317      0.0000     41.6589
 Total R(velocity) tensor for State=          2
                 1             2             3 
      1   0.156408D+03  0.286044D+03  0.282733D-05
      2   0.516192D+02 -0.314317D+02  0.331659D-05
      3   0.176011D-05  0.338962D-05  0.000000D+00
 R(velocity) tensor in inp. orien. for State=          2
                 1             2             3 
      1   0.156408D+03 -0.286044D+03 -0.282733D-05
      2  -0.516192D+02 -0.314317D+02  0.331659D-05
      3  -0.176011D-05  0.338962D-05  0.000000D+00
         3      -388.3239   -155.1251   -133.0112   -225.4867
 Total R(velocity) tensor for State=          3
                 1             2             3 
      1  -0.388324D+03  0.839137D+03 -0.284370D-05
      2   0.717866D+02 -0.155125D+03  0.202977D-05
      3   0.000000D+00 -0.120629D-05 -0.133011D+03
 R(velocity) tensor in inp. orien. for State=          3
                 1             2             3 
      1  -0.388324D+03 -0.839137D+03  0.284370D-05
      2  -0.717866D+02 -0.155125D+03  0.202977D-05
      3   0.000000D+00 -0.120629D-05 -0.133011D+03
         4        83.5678    180.9882      0.0000     88.1853
 Total R(velocity) tensor for State=          4
                 1             2             3 
      1   0.835678D+02 -0.482829D+03  0.634488D-05
      2  -0.192218D+03  0.180988D+03  0.000000D+00
      3  -0.219893D-05  0.194464D-05  0.000000D+00
 R(velocity) tensor in inp. orien. for State=          4
                 1             2             3 
      1   0.835678D+02  0.482829D+03 -0.634488D-05
      2   0.192218D+03  0.180988D+03  0.000000D+00
      3   0.219893D-05  0.194464D-05  0.000000D+00
         5        -0.8529     12.1714     -0.8930      3.4752
 Total R(velocity) tensor for State=          5
                 1             2             3 
      1  -0.852857D+00  0.505701D+00 -0.279676D-05
      2  -0.205269D+02  0.121714D+02 -0.118051D-05
      3   0.100308D-05  0.000000D+00 -0.893005D+00
 R(velocity) tensor in inp. orien. for State=          5
                 1             2             3 
      1  -0.852857D+00 -0.505701D+00  0.279676D-05
      2   0.205269D+02  0.121714D+02 -0.118051D-05
      3  -0.100308D-05  0.000000D+00 -0.893005D+00
         6        74.3758    118.1158      0.0000     64.1639
 Total R(velocity) tensor for State=          6
                 1             2             3 
      1   0.743758D+02 -0.352802D+02  0.000000D+00
      2   0.563291D+01  0.118116D+03  0.000000D+00
      3   0.000000D+00  0.106598D-05  0.000000D+00
 R(velocity) tensor in inp. orien. for State=          6
                 1             2             3 
      1   0.743758D+02  0.352802D+02  0.000000D+00
      2  -0.563291D+01  0.118116D+03  0.000000D+00
      3   0.000000D+00  0.106598D-05  0.000000D+00
         7       -24.8212    -36.7101    -75.3220    -45.6178
 Total R(velocity) tensor for State=          7
                 1             2             3 
      1  -0.248212D+02  0.664012D+02 -0.125152D-04
      2   0.137225D+02 -0.367101D+02 -0.564913D-05
      3   0.000000D+00  0.000000D+00 -0.753220D+02
 R(velocity) tensor in inp. orien. for State=          7
                 1             2             3 
      1  -0.248212D+02 -0.664012D+02  0.125152D-04
      2  -0.137225D+02 -0.367101D+02 -0.564913D-05
      3   0.000000D+00  0.000000D+00 -0.753220D+02
         8        43.4357     34.0307      0.0000     25.8221
 Total R(velocity) tensor for State=          8
                 1             2             3 
      1   0.434357D+02 -0.134270D+02  0.107178D-04
      2   0.131783D+01  0.340307D+02  0.398709D-05
      3  -0.111205D-05  0.000000D+00  0.000000D+00
 R(velocity) tensor in inp. orien. for State=          8
                 1             2             3 
      1   0.434357D+02  0.134270D+02 -0.107178D-04
      2  -0.131783D+01  0.340307D+02  0.398709D-05
      3   0.111205D-05  0.000000D+00  0.000000D+00
         9       -33.7692    -36.0135      0.0000    -23.2609
 Total R(velocity) tensor for State=          9
                 1             2             3 
      1  -0.337692D+02  0.472284D+01 -0.150090D-04
      2   0.241418D+01 -0.360135D+02  0.287230D-04
      3   0.000000D+00  0.000000D+00  0.000000D+00
 R(velocity) tensor in inp. orien. for State=          9
                 1             2             3 
      1  -0.337692D+02 -0.472284D+01  0.150090D-04
      2  -0.241418D+01 -0.360135D+02  0.287230D-04
      3   0.000000D+00  0.000000D+00  0.000000D+00
        10        -8.9196     -2.1979     -0.8287     -3.9821
 Total R(velocity) tensor for State=         10
                 1             2             3 
      1  -0.891964D+01 -0.357703D+01  0.136015D-04
      2  -0.548059D+01 -0.219788D+01 -0.279731D-04
      3   0.000000D+00  0.000000D+00 -0.828701D+00
 R(velocity) tensor in inp. orien. for State=         10
                 1             2             3 
      1  -0.891964D+01  0.357703D+01 -0.136015D-04
      2   0.548059D+01 -0.219788D+01 -0.279731D-04
      3   0.000000D+00  0.000000D+00 -0.828701D+00
        11        39.6127    -36.4416      0.0000      1.0570
 Total R(velocity) tensor for State=         11
                 1             2             3 
      1   0.396127D+02 -0.544971D+02 -0.215976D-05
      2  -0.310154D+02 -0.364416D+02 -0.212050D-04
      3  -0.124861D-04  0.105170D-04  0.000000D+00
 R(velocity) tensor in inp. orien. for State=         11
                 1             2             3 
      1   0.396127D+02  0.544971D+02  0.215976D-05
      2   0.310154D+02 -0.364416D+02 -0.212050D-04
      3   0.124861D-04  0.105170D-04  0.000000D+00
        12       -53.7919   -103.5067    -42.1460    -66.4815
 Total R(velocity) tensor for State=         12
                 1             2             3 
      1  -0.537919D+02  0.727446D+02 -0.231076D-05
      2   0.765393D+02 -0.103507D+03  0.221212D-04
      3   0.130967D-04 -0.123293D-04 -0.421460D+02
 R(velocity) tensor in inp. orien. for State=         12
                 1             2             3 
      1  -0.537919D+02 -0.727446D+02  0.231076D-05
      2  -0.765393D+02 -0.103507D+03  0.221212D-04
      3  -0.130967D-04 -0.123293D-04 -0.421460D+02
        13        18.1677    102.0927    112.2095     77.4899
 Total R(velocity) tensor for State=         13
                 1             2             3 
      1   0.181677D+02  0.312322D+03  0.200277D-05
      2   0.593871D+01  0.102093D+03  0.000000D+00
      3   0.000000D+00  0.134385D-05  0.112209D+03
 R(velocity) tensor in inp. orien. for State=         13
                 1             2             3 
      1   0.181677D+02 -0.312322D+03 -0.200277D-05
      2  -0.593871D+01  0.102093D+03  0.000000D+00
      3   0.000000D+00  0.134385D-05  0.112209D+03
        14        35.5451     -6.5541      0.0000      9.6637
 Total R(velocity) tensor for State=         14
                 1             2             3 
      1   0.355451D+02 -0.219187D+02  0.000000D+00
      2  -0.747881D+01 -0.655413D+01  0.000000D+00
      3   0.000000D+00  0.000000D+00  0.000000D+00
 R(velocity) tensor in inp. orien. for State=         14
                 1             2             3 
      1   0.355451D+02  0.219187D+02  0.000000D+00
      2   0.747881D+01 -0.655413D+01  0.000000D+00
      3   0.000000D+00  0.000000D+00  0.000000D+00
        15       122.9494     52.1964      0.0000     58.3819
 Total R(velocity) tensor for State=         15
                 1             2             3 
      1   0.122949D+03 -0.327178D+02  0.176346D-04
      2   0.686931D+01  0.521964D+02  0.191218D-05
      3  -0.266731D-05  0.000000D+00  0.000000D+00
 R(velocity) tensor in inp. orien. for State=         15
                 1             2             3 
      1   0.122949D+03  0.327178D+02 -0.176346D-04
      2  -0.686931D+01  0.521964D+02  0.191218D-05
      3   0.266731D-05  0.000000D+00  0.000000D+00
        16       -19.0119    -13.1609    -70.4178    -34.1969
 Total R(velocity) tensor for State=         16
                 1             2             3 
      1  -0.190119D+02  0.682623D+02 -0.119627D-04
      2   0.366548D+01 -0.131609D+02 -0.271139D-05
      3   0.406566D-05  0.000000D+00 -0.704178D+02
 R(velocity) tensor in inp. orien. for State=         16
                 1             2             3 
      1  -0.190119D+02 -0.682623D+02  0.119627D-04
      2  -0.366548D+01 -0.131609D+02 -0.271139D-05
      3  -0.406566D-05  0.000000D+00 -0.704178D+02
        17      -675.8578   -395.1733    -10.9354   -360.6555
 Total R(velocity) tensor for State=         17
                 1             2             3 
      1  -0.675858D+03  0.139096D+04 -0.149660D-04
      2   0.192012D+03 -0.395173D+03 -0.110504D-04
      3   0.000000D+00  0.000000D+00 -0.109354D+02
 R(velocity) tensor in inp. orien. for State=         17
                 1             2             3 
      1  -0.675858D+03 -0.139096D+04  0.149660D-04
      2  -0.192012D+03 -0.395173D+03 -0.110504D-04
      3   0.000000D+00  0.000000D+00 -0.109354D+02
        18        72.8304    144.9906      0.0000     72.6070
 Total R(velocity) tensor for State=         18
                 1             2             3 
      1   0.728304D+02 -0.376476D+03  0.394240D-05
      2  -0.240025D+03  0.144991D+03  0.236466D-05
      3  -0.179227D-05  0.110398D-05  0.000000D+00
 R(velocity) tensor in inp. orien. for State=         18
                 1             2             3 
      1   0.728304D+02  0.376476D+03 -0.394240D-05
      2   0.240025D+03  0.144991D+03  0.236466D-05
      3   0.179227D-05  0.110398D-05  0.000000D+00
        19      -371.3023   -328.5443    -56.8180   -252.2215
 Total R(velocity) tensor for State=         19
                 1             2             3 
      1  -0.371302D+03  0.141148D+04 -0.334726D-04
      2   0.864267D+02 -0.328544D+03 -0.534771D-05
      3   0.166051D-05 -0.326721D-05 -0.568180D+02
 R(velocity) tensor in inp. orien. for State=         19
                 1             2             3 
      1  -0.371302D+03 -0.141148D+04  0.334726D-04
      2  -0.864267D+02 -0.328544D+03 -0.534771D-05
      3  -0.166051D-05 -0.326721D-05 -0.568180D+02
        20        -2.9161   -100.2570      0.3040    -34.2897
 Total R(velocity) tensor for State=         20
                 1             2             3 
      1  -0.291607D+01  0.106800D+03  0.365448D-04
      2   0.273741D+01 -0.100257D+03  0.000000D+00
      3   0.000000D+00  0.000000D+00  0.303976D+00
 R(velocity) tensor in inp. orien. for State=         20
                 1             2             3 
      1  -0.291607D+01 -0.106800D+03 -0.365448D-04
      2  -0.273741D+01 -0.100257D+03  0.000000D+00
      3   0.000000D+00  0.000000D+00  0.303976D+00
        21       230.1893    189.6715      0.0000    139.9536
 Total R(velocity) tensor for State=         21
                 1             2             3 
      1   0.230189D+03 -0.178282D+03 -0.503116D-05
      2  -0.779698D+02  0.189671D+03  0.659861D-05
      3   0.000000D+00 -0.602233D-05  0.000000D+00
 R(velocity) tensor in inp. orien. for State=         21
                 1             2             3 
      1   0.230189D+03  0.178282D+03  0.503116D-05
      2   0.779698D+02  0.189671D+03  0.659861D-05
      3   0.000000D+00 -0.602233D-05  0.000000D+00
        22       489.8545    660.3881      0.0000    383.4142
 Total R(velocity) tensor for State=         22
                 1             2             3 
      1   0.489854D+03 -0.120478D+04  0.308811D-05
      2  -0.575218D+03  0.660388D+03  0.000000D+00
      3  -0.249724D-05 -0.246984D-05  0.000000D+00
 R(velocity) tensor in inp. orien. for State=         22
                 1             2             3 
      1   0.489854D+03  0.120478D+04 -0.308811D-05
      2   0.575218D+03  0.660388D+03  0.000000D+00
      3   0.249724D-05 -0.246984D-05  0.000000D+00
        23      -797.9766    283.2394   -226.3575   -247.0316
 Total R(velocity) tensor for State=         23
                 1             2             3 
      1  -0.797977D+03 -0.104491D+04 -0.563381D-05
      2   0.216304D+03  0.283239D+03  0.000000D+00
      3   0.000000D+00  0.000000D+00 -0.226358D+03
 R(velocity) tensor in inp. orien. for State=         23
                 1             2             3 
      1  -0.797977D+03  0.104491D+04  0.563381D-05
      2  -0.216304D+03  0.283239D+03  0.000000D+00
      3   0.000000D+00  0.000000D+00 -0.226358D+03
        24         1.5732     -1.6348      0.0000     -0.0206
 Total R(velocity) tensor for State=         24
                 1             2             3 
      1   0.157316D+01  0.798141D+01 -0.498374D-05
      2   0.219568D+01 -0.163482D+01  0.000000D+00
      3   0.000000D+00  0.000000D+00  0.000000D+00
 R(velocity) tensor in inp. orien. for State=         24
                 1             2             3 
      1   0.157316D+01 -0.798141D+01  0.498374D-05
      2  -0.219568D+01 -0.163482D+01  0.000000D+00
      3   0.000000D+00  0.000000D+00  0.000000D+00
        25        -7.3169     83.2452    137.8040     71.2441
 Total R(velocity) tensor for State=         25
                 1             2             3 
      1  -0.731688D+01 -0.283869D+03  0.280234D-05
      2   0.214569D+01  0.832452D+02 -0.871608D-05
      3   0.000000D+00  0.142462D-05  0.137804D+03
 R(velocity) tensor in inp. orien. for State=         25
                 1             2             3 
      1  -0.731688D+01  0.283869D+03 -0.280234D-05
      2  -0.214569D+01  0.832452D+02 -0.871608D-05
      3   0.000000D+00  0.142462D-05  0.137804D+03
        26         6.6196     -9.0362      0.0000     -0.8055
 Total R(velocity) tensor for State=         26
                 1             2             3 
      1   0.661961D+01  0.257344D+02  0.000000D+00
      2   0.154513D+02 -0.903622D+01  0.101397D-04
      3   0.000000D+00  0.000000D+00  0.000000D+00
 R(velocity) tensor in inp. orien. for State=         26
                 1             2             3 
      1   0.661961D+01 -0.257344D+02  0.000000D+00
      2  -0.154513D+02 -0.903622D+01  0.101397D-04
      3   0.000000D+00  0.000000D+00  0.000000D+00
        27       195.5606    -52.9647      0.0000     47.5320
 Total R(velocity) tensor for State=         27
                 1             2             3 
      1   0.195561D+03  0.386142D+03  0.000000D+00
      2   0.303481D+03 -0.529647D+02 -0.257059D-04
      3   0.000000D+00  0.000000D+00  0.000000D+00
 R(velocity) tensor in inp. orien. for State=         27
                 1             2             3 
      1   0.195561D+03 -0.386142D+03  0.000000D+00
      2  -0.303481D+03 -0.529647D+02 -0.257059D-04
      3   0.000000D+00  0.000000D+00  0.000000D+00
        28      -268.0410    183.7479    -91.2806    -58.5246
 Total R(velocity) tensor for State=         28
                 1             2             3 
      1  -0.268041D+03 -0.385270D+03 -0.659898D-05
      2   0.127838D+03  0.183748D+03  0.275822D-04
      3  -0.320646D-05  0.000000D+00 -0.912806D+02
 R(velocity) tensor in inp. orien. for State=         28
                 1             2             3 
      1  -0.268041D+03  0.385270D+03  0.659898D-05
      2  -0.127838D+03  0.183748D+03  0.275822D-04
      3   0.320646D-05  0.000000D+00 -0.912806D+02
        29       441.0990    -76.7516     79.7960    148.0478
 Total R(velocity) tensor for State=         29
                 1             2             3 
      1   0.441099D+03 -0.136346D+03  0.157740D-05
      2   0.248302D+03 -0.767516D+02  0.000000D+00
      3   0.501962D-05  0.000000D+00  0.797960D+02
 R(velocity) tensor in inp. orien. for State=         29
                 1             2             3 
      1   0.441099D+03  0.136346D+03 -0.157740D-05
      2  -0.248302D+03 -0.767516D+02  0.000000D+00
      3  -0.501962D-05  0.000000D+00  0.797960D+02
        30        16.1669     36.4755      0.0000     17.5475
 Total R(velocity) tensor for State=         30
                 1             2             3 
      1   0.161669D+02 -0.163097D+02  0.000000D+00
      2   0.174840D+02  0.364755D+02 -0.214820D-05
      3  -0.399618D-05  0.000000D+00  0.000000D+00
 R(velocity) tensor in inp. orien. for State=         30
                 1             2             3 
      1   0.161669D+02  0.163097D+02  0.000000D+00
      2  -0.174840D+02  0.364755D+02 -0.214820D-05
      3   0.399618D-05  0.000000D+00  0.000000D+00
        31      -144.0455    475.3555     81.7553    137.6884
 Total R(velocity) tensor for State=         31
                 1             2             3 
      1  -0.144046D+03 -0.386989D+03  0.105750D-05
      2   0.176937D+03  0.475355D+03  0.865189D-05
      3   0.108872D-05  0.142998D-05  0.817553D+02
 R(velocity) tensor in inp. orien. for State=         31
                 1             2             3 
      1  -0.144046D+03  0.386989D+03 -0.105750D-05
      2  -0.176937D+03  0.475355D+03  0.865189D-05
      3  -0.108872D-05  0.142998D-05  0.817553D+02
        32       -43.5878    -68.2750      0.0000    -37.2876
 Total R(velocity) tensor for State=         32
                 1             2             3 
      1  -0.435878D+02  0.795495D+02  0.208865D-05
      2  -0.378041D+02 -0.682750D+02  0.160742D-05
      3   0.000000D+00 -0.382976D-05  0.000000D+00
 R(velocity) tensor in inp. orien. for State=         32
                 1             2             3 
      1  -0.435878D+02 -0.795495D+02 -0.208865D-05
      2   0.378041D+02 -0.682750D+02  0.160742D-05
      3   0.000000D+00 -0.382976D-05  0.000000D+00
        33       -69.2832     16.3909    -17.6477    -23.5133
 Total R(velocity) tensor for State=         33
                 1             2             3 
      1  -0.692832D+02 -0.134092D+02 -0.267372D-05
      2   0.846895D+02  0.163909D+02  0.000000D+00
      3   0.000000D+00  0.000000D+00 -0.176477D+02
 R(velocity) tensor in inp. orien. for State=         33
                 1             2             3 
      1  -0.692832D+02  0.134092D+02  0.267372D-05
      2  -0.846895D+02  0.163909D+02  0.000000D+00
      3   0.000000D+00  0.000000D+00 -0.176477D+02
        34       -25.4472   -124.2948      0.0000    -49.9140
 Total R(velocity) tensor for State=         34
                 1             2             3 
      1  -0.254472D+02  0.250218D+03  0.108350D-04
      2   0.154526D+02 -0.124295D+03 -0.536223D-05
      3  -0.319200D-05  0.000000D+00  0.000000D+00
 R(velocity) tensor in inp. orien. for State=         34
                 1             2             3 
      1  -0.254472D+02 -0.250218D+03 -0.108350D-04
      2  -0.154526D+02 -0.124295D+03 -0.536223D-05
      3   0.319200D-05  0.000000D+00  0.000000D+00
        35       169.0064    -74.2434     35.7274     43.4968
 Total R(velocity) tensor for State=         35
                 1             2             3 
      1   0.169006D+03 -0.810678D+02 -0.375502D-05
      2   0.154779D+03 -0.742434D+02  0.276410D-05
      3   0.144522D-05 -0.131179D-05  0.357274D+02
 R(velocity) tensor in inp. orien. for State=         35
                 1             2             3 
      1   0.169006D+03  0.810678D+02  0.375502D-05
      2  -0.154779D+03 -0.742434D+02  0.276410D-05
      3  -0.144522D-05 -0.131179D-05  0.357274D+02
        36       176.7813    -62.3573      0.0000     38.1413
 Total R(velocity) tensor for State=         36
                 1             2             3 
      1   0.176781D+03  0.217209D+03  0.172317D-05
      2  -0.992894D+02 -0.623573D+02 -0.103502D-05
      3   0.000000D+00  0.185196D-05  0.000000D+00
 R(velocity) tensor in inp. orien. for State=         36
                 1             2             3 
      1   0.176781D+03 -0.217209D+03 -0.172317D-05
      2   0.992894D+02 -0.623573D+02 -0.103502D-05
      3   0.000000D+00  0.185196D-05  0.000000D+00
        37       -40.8186     11.0774      0.0000     -9.9137
 Total R(velocity) tensor for State=         37
                 1             2             3 
      1  -0.408186D+02 -0.202342D+02  0.000000D+00
      2   0.973174D+01  0.110774D+02  0.000000D+00
      3   0.000000D+00  0.000000D+00  0.000000D+00
 R(velocity) tensor in inp. orien. for State=         37
                 1             2             3 
      1  -0.408186D+02  0.202342D+02  0.000000D+00
      2  -0.973174D+01  0.110774D+02  0.000000D+00
      3   0.000000D+00  0.000000D+00  0.000000D+00
        38        36.0627    -40.4776   -124.8413    -43.0854
 Total R(velocity) tensor for State=         38
                 1             2             3 
      1   0.360627D+02  0.444546D+02  0.000000D+00
      2  -0.328365D+02 -0.404776D+02  0.000000D+00
      3  -0.145620D-05  0.000000D+00 -0.124841D+03
 R(velocity) tensor in inp. orien. for State=         38
                 1             2             3 
      1   0.360627D+02 -0.444546D+02  0.000000D+00
      2   0.328365D+02 -0.404776D+02  0.000000D+00
      3   0.145620D-05  0.000000D+00 -0.124841D+03
        39        -7.8128   -116.6733    -14.2641    -46.2501
 Total R(velocity) tensor for State=         39
                 1             2             3 
      1  -0.781279D+01 -0.157036D+02 -0.150727D-04
      2  -0.580469D+02 -0.116673D+03  0.177715D-04
      3   0.810837D-04  0.584177D-05 -0.142641D+02
 R(velocity) tensor in inp. orien. for State=         39
                 1             2             3 
      1  -0.781279D+01  0.157036D+02  0.150727D-04
      2   0.580469D+02 -0.116673D+03  0.177715D-04
      3  -0.810837D-04  0.584177D-05 -0.142641D+02
        40        63.9015     22.5692      0.0000     28.8236
 Total R(velocity) tensor for State=         40
                 1             2             3 
      1   0.639015D+02 -0.595114D+02  0.122529D-04
      2  -0.986716D+02  0.225692D+02 -0.146443D-04
      3  -0.785694D-04 -0.382526D-05  0.000000D+00
 R(velocity) tensor in inp. orien. for State=         40
                 1             2             3 
      1   0.639015D+02  0.595114D+02 -0.122529D-04
      2   0.986716D+02  0.225692D+02 -0.146443D-04
      3   0.785694D-04 -0.382526D-05  0.000000D+00
        41         9.8678     46.8850     25.0667     27.2732
 Total R(velocity) tensor for State=         41
                 1             2             3 
      1   0.986777D+01  0.369419D+01  0.132584D-05
      2   0.125237D+03  0.468850D+02  0.000000D+00
      3   0.151381D-05 -0.216351D-05  0.250667D+02
 R(velocity) tensor in inp. orien. for State=         41
                 1             2             3 
      1   0.986777D+01 -0.369419D+01 -0.132584D-05
      2  -0.125237D+03  0.468850D+02  0.000000D+00
      3  -0.151381D-05 -0.216351D-05  0.250667D+02
        42         0.1432     -0.0236      0.0000      0.0399
 Total R(velocity) tensor for State=         42
                 1             2             3 
      1   0.143196D+00  0.113938D+00  0.000000D+00
      2   0.815929D-01 -0.236116D-01  0.000000D+00
      3   0.000000D+00  0.000000D+00  0.000000D+00
 R(velocity) tensor in inp. orien. for State=         42
                 1             2             3 
      1   0.143196D+00 -0.113938D+00  0.000000D+00
      2  -0.815929D-01 -0.236116D-01  0.000000D+00
      3   0.000000D+00  0.000000D+00  0.000000D+00
        43       -84.7727      0.9087      0.0000    -27.9547
 Total R(velocity) tensor for State=         43
                 1             2             3 
      1  -0.847727D+02 -0.172850D+02  0.291621D-05
      2  -0.155143D+01  0.908654D+00  0.000000D+00
      3   0.136231D-05  0.000000D+00  0.000000D+00
 R(velocity) tensor in inp. orien. for State=         43
                 1             2             3 
      1  -0.847727D+02  0.172850D+02 -0.291621D-05
      2   0.155143D+01  0.908654D+00  0.000000D+00
      3  -0.136231D-05  0.000000D+00  0.000000D+00
        44         0.1596      4.5817    -13.3465     -2.8684
 Total R(velocity) tensor for State=         44
                 1             2             3 
      1   0.159558D+00 -0.251822D-01  0.000000D+00
      2  -0.290305D+02  0.458173D+01  0.000000D+00
      3   0.000000D+00  0.000000D+00 -0.133465D+02
 R(velocity) tensor in inp. orien. for State=         44
                 1             2             3 
      1   0.159558D+00  0.251822D-01  0.000000D+00
      2   0.290305D+02  0.458173D+01  0.000000D+00
      3   0.000000D+00  0.000000D+00 -0.133465D+02
        45        41.3234   -300.8184    -61.6061   -107.0337
 Total R(velocity) tensor for State=         45
                 1             2             3 
      1   0.413234D+02 -0.891310D+02 -0.362959D-05
      2   0.139467D+03 -0.300818D+03  0.000000D+00
      3   0.000000D+00 -0.359732D-05 -0.616061D+02
 R(velocity) tensor in inp. orien. for State=         45
                 1             2             3 
      1   0.413234D+02  0.891310D+02  0.362959D-05
      2  -0.139467D+03 -0.300818D+03  0.000000D+00
      3   0.000000D+00 -0.359732D-05 -0.616061D+02
        46        -5.5490    -40.9374      0.0000    -15.4955
 Total R(velocity) tensor for State=         46
                 1             2             3 
      1  -0.554903D+01  0.814016D+02  0.118970D-04
      2   0.321146D+02 -0.409374D+02 -0.607034D-05
      3   0.143785D-05  0.000000D+00  0.000000D+00
 R(velocity) tensor in inp. orien. for State=         46
                 1             2             3 
      1  -0.554903D+01 -0.814016D+02 -0.118970D-04
      2  -0.321146D+02 -0.409374D+02 -0.607034D-05
      3  -0.143785D-05  0.000000D+00  0.000000D+00
        47       -47.9110     47.7237      0.0000     -0.0624
 Total R(velocity) tensor for State=         47
                 1             2             3 
      1  -0.479110D+02 -0.125044D+02 -0.196386D-05
      2  -0.342369D+03  0.477237D+02  0.000000D+00
      3   0.202657D-04 -0.274910D-05  0.000000D+00
 R(velocity) tensor in inp. orien. for State=         47
                 1             2             3 
      1  -0.479110D+02  0.125044D+02  0.196386D-05
      2   0.342369D+03  0.477237D+02  0.000000D+00
      3  -0.202657D-04 -0.274910D-05  0.000000D+00
        48       184.2184   -219.8375     -1.3663    -12.3285
 Total R(velocity) tensor for State=         48
                 1             2             3 
      1   0.184218D+03 -0.346898D+02 -0.157648D-04
      2   0.116744D+04 -0.219837D+03  0.983570D-05
      3  -0.236918D-04  0.455840D-05 -0.136631D+01
 R(velocity) tensor in inp. orien. for State=         48
                 1             2             3 
      1   0.184218D+03  0.346898D+02  0.157648D-04
      2  -0.116744D+04 -0.219837D+03  0.983570D-05
      3   0.236918D-04  0.455840D-05 -0.136631D+01
        49       103.5412    112.7413     -3.7119     70.8569
 Total R(velocity) tensor for State=         49
                 1             2             3 
      1   0.103541D+03  0.132089D+02  0.255171D-04
      2   0.883749D+03  0.112741D+03  0.140818D-04
      3   0.203875D-04  0.212397D-05 -0.371188D+01
 R(velocity) tensor in inp. orien. for State=         49
                 1             2             3 
      1   0.103541D+03 -0.132089D+02 -0.255171D-04
      2  -0.883749D+03  0.112741D+03  0.140818D-04
      3  -0.203875D-04  0.212397D-05 -0.371188D+01
        50      -115.7243    132.7060      0.0000      5.6606
 Total R(velocity) tensor for State=         50
                 1             2             3 
      1  -0.115724D+03  0.438345D+03 -0.159627D-04
      2  -0.911965D+03  0.132706D+03 -0.122513D-04
      3  -0.144360D-04 -0.167853D-05  0.000000D+00
 R(velocity) tensor in inp. orien. for State=         50
                 1             2             3 
      1  -0.115724D+03 -0.438345D+03  0.159627D-04
      2   0.911965D+03  0.132706D+03 -0.122513D-04
      3   0.144360D-04 -0.167853D-05  0.000000D+00
 1/2[<0|r|b>*<b|rxdel|0> + (<0|rxdel|b>*<b|r|0>)*]
[...]
 Alpha virt. eigenvalues --    0.13859   0.14061   0.14196   0.14534   0.14546
 Alpha virt. eigenvalues --    0.14968   0.15074   0.15115   0.15236   0.15454
 Alpha virt. eigenvalues --    0.15866   0.15994   0.16124   0.16619   0.16773
 Alpha virt. eigenvalues --    0.16810   0.16888   0.17178   0.17477   0.17608
 Alpha virt. eigenvalues --    0.17896   0.18142   0.18176   0.18318   0.18356
 Alpha virt. eigenvalues --    0.18632   0.19139   0.19164   0.19285   0.19476
 Alpha virt. eigenvalues --    0.19501   0.19767   0.19910   0.20371   0.20384
 Alpha virt. eigenvalues --    0.20998   0.21000   0.21203   0.21399   0.21907
 Alpha virt. eigenvalues --    0.22028   0.22338   0.22372   0.22499   0.22728
 Alpha virt. eigenvalues --    0.23132   0.23168   0.23352   0.23385   0.23562
 Alpha virt. eigenvalues --    0.23624   0.23795   0.23994   0.24052   0.24196
 Alpha virt. eigenvalues --    0.24553   0.24632   0.24780   0.24901   0.24997
 Alpha virt. eigenvalues --    0.25430   0.25485   0.25683   0.26102   0.26198
 Alpha virt. eigenvalues --    0.26212   0.26426   0.26644   0.26807   0.26907
 Alpha virt. eigenvalues --    0.27034   0.27352   0.27477   0.27638   0.28041
 Alpha virt. eigenvalues --    0.28084   0.28409   0.28477   0.28691   0.29030
 Alpha virt. eigenvalues --    0.29092   0.29281   0.29438   0.29714   0.30050
 Alpha virt. eigenvalues --    0.30091   0.30213   0.30263   0.30337   0.30698
 Alpha virt. eigenvalues --    0.30827   0.31159   0.31273   0.31429   0.31660
 Alpha virt. eigenvalues --    0.31744   0.31906   0.32146   0.32368   0.32470
 Alpha virt. eigenvalues --    0.32627   0.32898   0.33061   0.33145   0.33262
 Alpha virt. eigenvalues --    0.33747   0.33893   0.34359   0.34513   0.34647
 Alpha virt. eigenvalues --    0.34716   0.35072   0.35077   0.35355   0.35806
 Alpha virt. eigenvalues --    0.36042   0.36218   0.36258   0.36432   0.36583
 Alpha virt. eigenvalues --    0.36585   0.37028   0.37083   0.37411   0.37623
 Alpha virt. eigenvalues --    0.37728   0.37971   0.38005   0.38069   0.38482
 Alpha virt. eigenvalues --    0.38823   0.39250   0.39555   0.39586   0.39777
 Alpha virt. eigenvalues --    0.39809   0.40286   0.40378   0.40653   0.40812
 Alpha virt. eigenvalues --    0.41021   0.41512   0.41715   0.41944   0.42253
 Alpha virt. eigenvalues --    0.42368   0.42519   0.42543   0.43018   0.43515
 Alpha virt. eigenvalues --    0.43697   0.44008   0.44023   0.44651   0.44807
 Alpha virt. eigenvalues --    0.45040   0.45521   0.45730   0.46061   0.46185
 Alpha virt. eigenvalues --    0.46186   0.46537   0.46871   0.47561   0.47610
 Alpha virt. eigenvalues --    0.47743   0.47760   0.48095   0.48830   0.49056
 Alpha virt. eigenvalues --    0.49453   0.49497   0.49822   0.50631   0.50794
 Alpha virt. eigenvalues --    0.50970   0.51282   0.51495   0.52014   0.52060
 Alpha virt. eigenvalues --    0.53221   0.53516   0.53633   0.54039   0.54424
 Alpha virt. eigenvalues --    0.54550   0.54794   0.55357   0.56123   0.56203
 Alpha virt. eigenvalues --    0.56871   0.57509   0.57837   0.57941   0.58194
 Alpha virt. eigenvalues --    0.59050   0.60313   0.63556   0.63915   0.64826
 Alpha virt. eigenvalues --    0.64944   0.68608   0.69506   0.70680   0.70779
 Alpha virt. eigenvalues --    0.71603   0.72193   0.73211   0.73521   0.73990
 Alpha virt. eigenvalues --    0.74587   0.75845   0.76330   0.77026   0.77216
 Alpha virt. eigenvalues --    0.77721   0.78112   0.78262   0.78422   0.78802
 Alpha virt. eigenvalues --    0.79050   0.79531   0.79636   0.80175   0.80515
 Alpha virt. eigenvalues --    0.80737   0.81649   0.81757   0.82071   0.82079
 Alpha virt. eigenvalues --    0.82231   0.82434   0.82946   0.83511   0.83628
 Alpha virt. eigenvalues --    0.84388   0.84723   0.85075   0.85181   0.85645
 Alpha virt. eigenvalues --    0.86259   0.87063   0.87308   0.87592   0.87666
 Alpha virt. eigenvalues --    0.88237   0.88979   0.89319   0.90152   0.90791
 Alpha virt. eigenvalues --    0.90895   0.91460   0.91536   0.91641   0.91874
 Alpha virt. eigenvalues --    0.92551   0.92928   0.93965   0.94408   0.94764
 Alpha virt. eigenvalues --    0.95302   0.95558   0.96221   0.96763   0.97340
 Alpha virt. eigenvalues --    0.98066   0.98165   0.98405   0.98640   0.99050
 Alpha virt. eigenvalues --    0.99243   0.99596   1.00162   1.00410   1.00670
 Alpha virt. eigenvalues --    1.01789   1.01878   1.02029   1.02258   1.02548
 Alpha virt. eigenvalues --    1.02955   1.03090   1.03678   1.04564   1.04613
 Alpha virt. eigenvalues --    1.05270   1.05463   1.05849   1.06508   1.06669
 Alpha virt. eigenvalues --    1.06692   1.07190   1.07545   1.08122   1.08457
 Alpha virt. eigenvalues --    1.08739   1.09017   1.10017   1.10149   1.11408
 Alpha virt. eigenvalues --    1.11723   1.11863   1.12482   1.12581   1.12612
 Alpha virt. eigenvalues --    1.13283   1.13451   1.14044   1.15359   1.15640
 Alpha virt. eigenvalues --    1.15714   1.16430   1.16819   1.16845   1.17111
 Alpha virt. eigenvalues --    1.18395   1.18469   1.19375   1.19408   1.19931
 Alpha virt. eigenvalues --    1.20525   1.20996   1.21187   1.21820   1.22388
 Alpha virt. eigenvalues --    1.22395   1.22867   1.23208   1.23922   1.24040
 Alpha virt. eigenvalues --    1.24789   1.25111   1.25286   1.25568   1.25801
 Alpha virt. eigenvalues --    1.27196   1.29026   1.29064   1.29163   1.29992
 Alpha virt. eigenvalues --    1.30146   1.30193   1.30838   1.31952   1.32001
 Alpha virt. eigenvalues --    1.32191   1.33272   1.34471   1.35584   1.35972
 Alpha virt. eigenvalues --    1.36497   1.37124   1.37839   1.38515   1.39004
 Alpha virt. eigenvalues --    1.39295   1.39416   1.39492   1.39524   1.40443
 Alpha virt. eigenvalues --    1.41427   1.41879   1.42150   1.42786   1.42942
 Alpha virt. eigenvalues --    1.43232   1.43262   1.43885   1.44116   1.44638
 Alpha virt. eigenvalues --    1.45080   1.45448   1.46604   1.46660   1.46791
 Alpha virt. eigenvalues --    1.47557   1.47706   1.48039   1.48609   1.48973
 Alpha virt. eigenvalues --    1.49339   1.49553   1.49577   1.50284   1.50706
 Alpha virt. eigenvalues --    1.50754   1.51073   1.51554   1.51822   1.52862
 Alpha virt. eigenvalues --    1.53057   1.54065   1.54175   1.55631   1.56482
 Alpha virt. eigenvalues --    1.56583   1.58501   1.59010   1.59658   1.60196
 Alpha virt. eigenvalues --    1.60757   1.61451   1.61959   1.63975   1.64164
 Alpha virt. eigenvalues --    1.64855   1.64892   1.66218   1.66423   1.68061
 Alpha virt. eigenvalues --    1.68656   1.70645   1.71201   1.72315   1.73069
 Alpha virt. eigenvalues --    1.73597   1.73827   1.75260   1.76225   1.76508
 Alpha virt. eigenvalues --    1.76992   1.77948   1.79456   1.79537   1.80475
 Alpha virt. eigenvalues --    1.81540   1.81762   1.82765   1.83047   1.84520
 Alpha virt. eigenvalues --    1.84879   1.85089   1.85922   1.86118   1.86716
 Alpha virt. eigenvalues --    1.86975   1.87056   1.87662   1.88569   1.88700
 Alpha virt. eigenvalues --    1.89079   1.89589   1.90056   1.91089   1.92302
 Alpha virt. eigenvalues --    1.92395   1.93112   1.93320   1.93322   1.93813
 Alpha virt. eigenvalues --    1.94131   1.94640   1.94887   1.95463   1.95706
 Alpha virt. eigenvalues --    1.96110   1.96318   1.96546   1.97145   1.97564
 Alpha virt. eigenvalues --    1.97892   1.98412   1.98590   1.99099   1.99670
 Alpha virt. eigenvalues --    1.99733   2.00242   2.00673   2.01483   2.01510
 Alpha virt. eigenvalues --    2.01795   2.01860   2.02814   2.03328   2.04762
 Alpha virt. eigenvalues --    2.04776   2.05360   2.05915   2.05921   2.06547
 Alpha virt. eigenvalues --    2.07157   2.07607   2.07859   2.08047   2.08482
 Alpha virt. eigenvalues --    2.08683   2.08951   2.09347   2.10205   2.10591
 Alpha virt. eigenvalues --    2.11533   2.11742   2.11934   2.12159   2.12268
 Alpha virt. eigenvalues --    2.12531   2.12964   2.13512   2.13667   2.13763
 Alpha virt. eigenvalues --    2.13910   2.14465   2.14616   2.14811   2.15393
 Alpha virt. eigenvalues --    2.16603   2.16762   2.17203   2.17465   2.19209
 Alpha virt. eigenvalues --    2.20098   2.20342   2.20646   2.20994   2.21288
 Alpha virt. eigenvalues --    2.21474   2.21922   2.22512   2.23237   2.23371
 Alpha virt. eigenvalues --    2.24186   2.25819   2.25877   2.26063   2.26887
 Alpha virt. eigenvalues --    2.28315   2.29570   2.29707   2.30073   2.30082
 Alpha virt. eigenvalues --    2.32476   2.32745   2.33679   2.33924   2.35115
 Alpha virt. eigenvalues --    2.36031   2.36661   2.37008   2.37421   2.37696
 Alpha virt. eigenvalues --    2.37793   2.38829   2.39866   2.40200   2.41601
 Alpha virt. eigenvalues --    2.41833   2.42595   2.42653   2.43571   2.44209
 Alpha virt. eigenvalues --    2.44768   2.44768   2.45084   2.45972   2.46099
 Alpha virt. eigenvalues --    2.46320   2.47203   2.47371   2.47579   2.47695
 Alpha virt. eigenvalues --    2.49175   2.49557   2.50217   2.50662   2.51254
 Alpha virt. eigenvalues --    2.52229   2.53142   2.54255   2.54521   2.54588
 Alpha virt. eigenvalues --    2.56190   2.56839   2.57729   2.58343   2.58543
 Alpha virt. eigenvalues --    2.59297   2.59621   2.60469   2.61662   2.62068
 Alpha virt. eigenvalues --    2.62101   2.62717   2.62998   2.63159   2.63311
 Alpha virt. eigenvalues --    2.63896   2.64283   2.64288   2.64662   2.64979
 Alpha virt. eigenvalues --    2.65248   2.65986   2.66898   2.67330   2.67968
 Alpha virt. eigenvalues --    2.68643   2.68994   2.69819   2.69859   2.70674
 Alpha virt. eigenvalues --    2.70682   2.72127   2.72780   2.72871   2.73722
 Alpha virt. eigenvalues --    2.73766   2.74648   2.74869   2.75783   2.75990
 Alpha virt. eigenvalues --    2.76071   2.77026   2.77049   2.77686   2.78477
 Alpha virt. eigenvalues --    2.78692   2.79317   2.79745   2.79864   2.80424
 Alpha virt. eigenvalues --    2.81699   2.81740   2.82073   2.82193   2.82220
 Alpha virt. eigenvalues --    2.83260   2.83842   2.84201   2.84714   2.85140
 Alpha virt. eigenvalues --    2.85380   2.85850   2.86739   2.87111   2.87683
 Alpha virt. eigenvalues --    2.88673   2.88714   2.89159   2.89646   2.90398
 Alpha virt. eigenvalues --    2.91890   2.93972   2.94666   2.95088   2.95164
 Alpha virt. eigenvalues --    2.95372   2.96096   2.96367   2.97186   2.97804
 Alpha virt. eigenvalues --    2.98272   2.98430   2.99222   2.99431   3.00382
 Alpha virt. eigenvalues --    3.00633   3.01818   3.02161   3.02483   3.02577
 Alpha virt. eigenvalues --    3.03626   3.04946   3.05812   3.06464   3.08641
 Alpha virt. eigenvalues --    3.09660   3.11278   3.12633   3.14815   3.15675
 Alpha virt. eigenvalues --    3.17339   3.18227   3.19192   3.20230   3.23343
 Alpha virt. eigenvalues --    3.23757   3.24199   3.26036   3.27271   3.27490
 Alpha virt. eigenvalues --    3.28309   3.29670   3.31891   3.33022   3.33042
 Alpha virt. eigenvalues --    3.33769   3.33916   3.35110   3.35187   3.35889
 Alpha virt. eigenvalues --    3.35964   3.39822   3.39846   3.41557   3.41581
 Alpha virt. eigenvalues --    3.43749   3.44057   3.45072   3.45231   3.46505
 Alpha virt. eigenvalues --    3.47300   3.50985   3.51083   3.53816   3.53895
 Alpha virt. eigenvalues --    3.54274   3.54636   3.55731   3.57059   3.57949
 Alpha virt. eigenvalues --    3.58023   3.59070   3.59281   3.59688   3.60114
 Alpha virt. eigenvalues --    3.61839   3.61899   3.63638   3.63939   3.64132
 Alpha virt. eigenvalues --    3.64405   3.66421   3.68894   3.92486   3.92797
 Alpha virt. eigenvalues --    4.34117   4.35403   4.46172   4.46897   4.47837
 Alpha virt. eigenvalues --    4.48267   4.48433   4.49603   4.50782   4.51973
 Alpha virt. eigenvalues --    4.53809   4.55022   4.56554   4.57894   4.58905
 Alpha virt. eigenvalues --    4.59607   4.60068   4.60321   4.61618   4.63119
 Alpha virt. eigenvalues --    4.64601   4.68239   4.68760   4.69589   4.71295
 Alpha virt. eigenvalues --    4.71793   4.74595   4.76865   4.78208   4.81877
 Alpha virt. eigenvalues --    4.82801   4.83443   4.85056   4.92516   4.95678
 Alpha virt. eigenvalues --    4.96207   4.98436   5.00369   5.03657   5.06185
 Alpha virt. eigenvalues --    5.14353   5.14466
          Condensed to atoms (all electrons):
 Mulliken atomic charges:
              1
     1  C   -0.373807
     2  C   -0.128902
     3  C   -0.373539
     4  C   -0.036752
     5  C    0.201712
     6  C   -0.143109
     7  N   -0.438041
     8  C   -0.304849
     9  C   -0.454777
    10  N    0.270066
    11  C   -0.465071
    12  C    0.310255
    13  C    0.426767
    14  C    0.188630
    15  N   -0.432099
    16  C    0.538621
    17  C   -0.035660
    18  C   -0.488547
    19  C   -0.551296
    20  O   -0.529970
    21  O   -0.510869
    22  C   -0.373807
    23  C   -0.128902
    24  C   -0.373539
    25  C   -0.036752
    26  C    0.201712
    27  C   -0.143109
    28  N   -0.438041
    29  C   -0.304849
    30  C   -0.454777
    31  N    0.270066
    32  C   -0.465071
    33  C    0.310255
    34  C    0.426767
    35  C    0.188630
    36  N   -0.432099
    37  C    0.538621
    38  C   -0.035660
    39  C   -0.488547
    40  C   -0.551296
    41  O   -0.529970
    42  O   -0.510869
    43  H    0.143006
    44  H    0.147290
    45  H    0.146697
    46  H    0.130934
    47  H    0.365371
    48  H    0.187755
    49  H    0.201567
    50  H    0.189107
    51  H    0.170865
    52  H    0.182171
    53  H    0.345034
    54  H    0.179246
    55  H    0.147279
    56  H    0.163398
    57  H    0.158566
    58  H    0.155770
    59  H    0.158065
    60  H    0.159116
    61  H    0.143006
    62  H    0.147290
    63  H    0.146697
    64  H    0.130934
    65  H    0.365371
    66  H    0.187755
    67  H    0.201567
    68  H    0.189107
    69  H    0.170865
    70  H    0.182171
    71  H    0.345034
    72  H    0.179246
    73  H    0.147279
    74  H    0.158566
    75  H    0.163398
    76  H    0.159116
    77  H    0.158065
    78  H    0.155770
 Sum of Mulliken atomic charges =   0.00000
 Mulliken charges with hydrogens summed into heavy atoms:
              1
     1  C   -0.230801
     2  C    0.018387
     3  C   -0.226842
     4  C   -0.036752
     5  C    0.201712
     6  C   -0.012175
     7  N   -0.072669
     8  C   -0.117094
     9  C   -0.454777
    10  N    0.270066
    11  C   -0.263503
    12  C    0.670227
    13  C    0.426767
    14  C    0.370800
    15  N   -0.087065
    16  C    0.538621
    17  C    0.143586
    18  C   -0.019304
    19  C   -0.078345
    20  O   -0.529970
    21  O   -0.510869
    22  C   -0.230801
    23  C    0.018387
    24  C   -0.226842
    25  C   -0.036752
    26  C    0.201712
    27  C   -0.012175
    28  N   -0.072669
    29  C   -0.117094
    30  C   -0.454777
    31  N    0.270066
    32  C   -0.263503
    33  C    0.670227
    34  C    0.426767
    35  C    0.370800
    36  N   -0.087065
    37  C    0.538621
    38  C    0.143586
    39  C   -0.019304
    40  C   -0.078345
    41  O   -0.529970
    42  O   -0.510869
 Sum of Mulliken charges with hydrogens summed into heavy atoms =   0.00000
 Electronic spatial extent (au):  <R**2>=          23228.7551
 Charge=              0.0000 electrons
 Dipole moment (field-independent basis, Debye):
    X=              0.0000    Y=              0.0000    Z=             -1.9957  Tot=              1.9957
 Quadrupole moment (field-independent basis, Debye-Ang):
   XX=           -234.0391   YY=           -209.7823   ZZ=           -289.6744
   XY=              7.8995   XZ=              0.0000   YZ=              0.0000
 Traceless Quadrupole moment (field-independent basis, Debye-Ang):
   XX=             10.4595   YY=             34.7163   ZZ=            -45.1758
   XY=              7.8995   XZ=              0.0000   YZ=              0.0000
 Octapole moment (field-independent basis, Debye-Ang**2):
  XXX=              0.0000  YYY=              0.0000  ZZZ=            -86.2381  XYY=              0.0000
  XXY=              0.0000  XXZ=            -12.7570  XZZ=              0.0000  YZZ=              0.0000
  YYZ=            -63.7279  XYZ=             17.7618
 Hexadecapole moment (field-independent basis, Debye-Ang**3):
 XXXX=          -5313.0855 YYYY=         -19553.3842 ZZZZ=          -3531.5558 XXXY=            -65.6899
 XXXZ=              0.0000 YYYX=            304.3608 YYYZ=              0.0000 ZZZX=              0.0000
 ZZZY=              0.0000 XXYY=          -4758.8962 XXZZ=          -1387.1675 YYZZ=          -5051.0163
 XXYZ=              0.0000 YYXZ=              0.0000 ZZXY=           -177.7372
 N-N= 5.282834641979D+03 E-N=-1.490880038501D+04  KE= 1.852466395316D+03
 Symmetry A    KE= 9.273591455128D+02
 Symmetry B    KE= 9.251072498028D+02
 1\1\GINC-CN029\SP\RTD-CAM-B3LYP-FC\6-31+G(d,p)\C32H36N6O4\UVIQOANV\03-
 Dec-2010\0\\#CAM-B3LYP 6-31+G** td=(singlets,nstates=50) scrf=(pcm,sol
 vent=chloroform)\\OPBE/6-31G* geometry\\0,1\C,0,-4.206858,-0.502067,-0
 .768514\C,0,-4.515613,-0.990783,0.505301\C,0,-3.507498,-1.367202,1.398
 285\C,0,-2.175504,-1.229364,0.988853\C,0,-1.844585,-0.71559,-0.282245\
 C,0,-2.867392,-0.372821,-1.166133\N,0,-1.02705,-1.501942,1.710985\C,0,
 0.094689,-1.552416,0.81607\C,0,-0.324022,-0.720325,-0.446758\N,0,0.377
 22,-2.892438,0.267384\C,0,0.867148,-2.783769,-1.096847\C,0,0.105148,-1
 .585302,-1.667717\C,0,0.505017,-3.994697,1.047717\C,0,0.910029,-5.2859
 55,0.313304\N,0,0.697431,-5.197347,-1.119462\C,0,0.701339,-4.07515,-1.
 889473\C,0,0.203853,-6.517336,0.929086\C,0,0.867148,-7.830526,0.500139
 \C,0,-1.306501,-6.530382,0.680488\O,0,0.607279,-4.090083,-3.113218\O,0
 ,0.319687,-3.990752,2.268769\C,0,4.206858,0.502067,-0.768514\C,0,4.515
 613,0.990783,0.505301\C,0,3.507498,1.367202,1.398285\C,0,2.175504,1.22
 9364,0.988853\C,0,1.844585,0.71559,-0.282245\C,0,2.867392,0.372821,-1.
 166133\N,0,1.02705,1.501942,1.710985\C,0,-0.094689,1.552416,0.81607\C,
 0,0.324022,0.720325,-0.446758\N,0,-0.37722,2.892438,0.267384\C,0,-0.86
 7148,2.783769,-1.096847\C,0,-0.105148,1.585302,-1.667717\C,0,-0.505017
 ,3.994697,1.047717\C,0,-0.910029,5.285955,0.313304\N,0,-0.697431,5.197
 347,-1.119462\C,0,-0.701339,4.07515,-1.889473\C,0,-0.203853,6.517336,0
 .929086\C,0,-0.867148,7.830526,0.500139\C,0,1.306501,6.530382,0.680488
 \O,0,-0.607279,4.090083,-3.113218\O,0,-0.319687,3.990752,2.268769\H,0,
 -5.005142,-0.23496,-1.461388\H,0,-5.55924,-1.097168,0.806184\H,0,-3.75
 1589,-1.767926,2.38296\H,0,-2.647073,-0.029628,-2.177338\H,0,-1.027431
 ,-2.20388,2.443178\H,0,0.999499,-1.177477,1.311164\H,0,1.950624,-2.558
 621,-1.08083\H,0,-0.776608,-1.944311,-2.208663\H,0,0.719731,-1.042447,
 -2.390077\H,0,1.993344,-5.400594,0.522475\H,0,0.661274,-6.063732,-1.64
 4556\H,0,0.365592,-6.397543,2.010597\H,0,0.723826,-8.054067,-0.56828\H
 ,0,0.431538,-8.672175,1.056027\H,0,1.948253,-7.825164,0.700768\H,0,-1.
 76687,-7.378808,1.205375\H,0,-1.782078,-5.614155,1.052455\H,0,-1.55169
 7,-6.629277,-0.386149\H,0,5.005142,0.23496,-1.461388\H,0,5.55924,1.097
 168,0.806184\H,0,3.751589,1.767926,2.38296\H,0,2.647073,0.029628,-2.17
 7338\H,0,1.027431,2.20388,2.443178\H,0,-0.999499,1.177477,1.311164\H,0
 ,-1.950624,2.558621,-1.08083\H,0,0.776608,1.944311,-2.208663\H,0,-0.71
 9731,1.042447,-2.390077\H,0,-1.993344,5.400594,0.522475\H,0,-0.661274,
 6.063732,-1.644556\H,0,-0.365592,6.397543,2.010597\H,0,-0.723826,8.054
 067,-0.56828\H,0,-1.948253,7.825164,0.700768\H,0,-0.431538,8.672175,1.
 056027\H,0,1.551697,6.629277,-0.386149\H,0,1.782078,5.614155,1.052455\
 H,0,1.76687,7.378808,1.205375\\Version=IA64L-G09RevA.02\State=1-A\HF=-
 1869.7825768\RMSD=4.972e-09\PG=C02 [X(C32H36N6O4)]\\@


 THERE IS NO SUBJECT, HOWEVER COMPLEX,
 WHICH, IF STUDIED WITH PATIENCE AND INTELLIGIENCE
 WILL NOT BECOME
 MORE COMPLEX
                        QUOTED BY D. GORDON ROHMAN
 Job cpu time: 13 days 16 hours  9 minutes 17.7 seconds.
 File lengths (MBytes):  RWF=   9879 Int=      0 D2E=      0 Chk=   1502 Scr=      1
 Normal termination of Gaussian 09 at Fri Dec  3 09:48:25 2010.
