/scratch/2404796.1.medium_queue
 Entering Gaussian System, Link 0=/opt/cesga/g09a2/g09.exe
 Initial command:
 /opt/cesga/g09a2/l1.exe /scratch/2404796.1.medium_queue/Gau-7570.inp -scrdir=/scratch/2404796.1.medium_queue/
 Default is to use a total of   8 processors:
                                8 via shared-memory
                                1 via Linda
 Entering Link 1 = /opt/cesga/g09a2/l1.exe PID=      7571.
  
 Copyright (c) 1988,1990,1992,1993,1995,1998,2003,2009, Gaussian, Inc.
                  All Rights Reserved.
  
 This is part of the Gaussian(R) 09 program.  It is based on
 the Gaussian(R) 03 system (copyright 2003, Gaussian, Inc.),
 the Gaussian(R) 98 system (copyright 1998, Gaussian, Inc.),
 the Gaussian(R) 94 system (copyright 1995, Gaussian, Inc.),
 the Gaussian 92(TM) system (copyright 1992, Gaussian, Inc.),
 the Gaussian 90(TM) system (copyright 1990, Gaussian, Inc.),
 the Gaussian 88(TM) system (copyright 1988, Gaussian, Inc.),
 the Gaussian 86(TM) system (copyright 1986, Carnegie Mellon
 University), and the Gaussian 82(TM) system (copyright 1983,
 Carnegie Mellon University). Gaussian is a federally registered
 trademark of Gaussian, Inc.
  
 This software contains proprietary and confidential information,
 including trade secrets, belonging to Gaussian, Inc.
  
 This software is provided under written license and may be
 used, copied, transmitted, or stored only in accord with that
 written license.
  
 The following legend is applicable only to US Government
 contracts under FAR:
  
                    RESTRICTED RIGHTS LEGEND
  
 Use, reproduction and disclosure by the US Government is
 subject to restrictions as set forth in subparagraphs (a)
 and (c) of the Commercial Computer Software - Restricted
 Rights clause in FAR 52.227-19.
  
 Gaussian, Inc.
 340 Quinnipiac St., Bldg. 40, Wallingford CT 06492
  
  
 ---------------------------------------------------------------
 Warning -- This program may not be used in any manner that
 competes with the business of Gaussian, Inc. or will provide
 assistance to any competitor of Gaussian, Inc.  The licensee
 of this program is prohibited from giving any competitor of
 Gaussian, Inc. access to this program.  By using this program,
 the user acknowledges that Gaussian, Inc. is engaged in the
 business of creating and licensing software in the field of
 computational chemistry and represents and warrants to the
 licensee that it is not a competitor of Gaussian, Inc. and that
 it will not use this program in any manner prohibited above.
 ---------------------------------------------------------------
  

 Cite this work as:
 Gaussian 09, Revision A.02,
 M. J. Frisch, G. W. Trucks, H. B. Schlegel, G. E. Scuseria, 
 M. A. Robb, J. R. Cheeseman, G. Scalmani, V. Barone, B. Mennucci, 
 G. A. Petersson, H. Nakatsuji, M. Caricato, X. Li, H. P. Hratchian, 
 A. F. Izmaylov, J. Bloino, G. Zheng, J. L. Sonnenberg, M. Hada, 
 M. Ehara, K. Toyota, R. Fukuda, J. Hasegawa, M. Ishida, T. Nakajima, 
 Y. Honda, O. Kitao, H. Nakai, T. Vreven, J. A. Montgomery, Jr., 
 J. E. Peralta, F. Ogliaro, M. Bearpark, J. J. Heyd, E. Brothers, 
 K. N. Kudin, V. N. Staroverov, R. Kobayashi, J. Normand, 
 K. Raghavachari, A. Rendell, J. C. Burant, S. S. Iyengar, J. Tomasi, 
 M. Cossi, N. Rega, J. M. Millam, M. Klene, J. E. Knox, J. B. Cross, 
 V. Bakken, C. Adamo, J. Jaramillo, R. Gomperts, R. E. Stratmann, 
 O. Yazyev, A. J. Austin, R. Cammi, C. Pomelli, J. W. Ochterski, 
 R. L. Martin, K. Morokuma, V. G. Zakrzewski, G. A. Voth, 
 P. Salvador, J. J. Dannenberg, S. Dapprich, A. D. Daniels, 
 O. Farkas, J. B. Foresman, J. V. Ortiz, J. Cioslowski, 
 and D. J. Fox, Gaussian, Inc., Wallingford CT, 2009.
 
 ******************************************
 Gaussian 09:  IA64L-G09RevA.02 11-Jun-2009
                 8-Oct-2010 
 ******************************************
 %mem=4096mb
 %chk=mirta_1_rc_m06
 Default route:  SCF=Direct
 ----------------------------------------------------------------------
 #M06 6-31+G** opt=(fccards,gdiis) freq=noraman scrf=(pcm,solvent=dichl
 oromethane) integral=(grid=ultrafine)
 ----------------------------------------------------------------------

 Warning!  Use of Opt=GDIIS is deprecated since it is seldom a good choice.

 1/10=6,14=-1,18=20,19=11,26=3,38=1/1,3;
 2/9=110,12=2,17=6,18=5,40=1/2;
 3/5=1,6=6,7=111,11=2,16=1,25=1,30=1,70=2201,71=1,72=9,74=-54,75=-5/1,2,3;
 4//1;
 5/5=2,38=5,53=9/2;
 6/7=2,8=2,9=2,10=2,28=1/1;
 7//1,2,3,16;
 1/14=-1,18=20,19=11/3(2);
 2/9=110/2;
 99//99;
 2/9=110/2;
 3/5=1,6=6,7=111,11=2,16=1,25=1,30=1,70=2205,71=1,72=9,74=-54,75=-5/1,2,3;
 4/5=5,16=3/1;
 5/5=2,38=5,53=9/2;
 7//1,2,3,16;
 1/14=-1,18=20,19=11/3(-5);
 2/9=110/2;
 6/7=2,8=2,9=2,10=2,19=2,28=1/1;
 99/9=1/99;
 -----------------------------------
 mirta 1 trienone reactive conformer
 -----------------------------------
 Symbolic Z-matrix:
 Charge =  0 Multiplicity = 1
 C                     4.84158  -1.7882   -0.42817 
 C                     4.69991  -0.79095  -1.4109 
 C                     3.73468   0.2003   -1.27082 
 C                     2.88546   0.21504  -0.14517 
 C                     3.05349  -0.78982   0.81657 
 C                     4.02303  -1.80053   0.69628 
 H                     5.60379  -2.56052  -0.55056 
 H                     5.35209  -0.79898  -2.28259 
 H                     3.61492   0.98414  -2.02583 
 C                     1.85982   1.26488   0.00759 
 O                     2.28701  -0.85225   1.95997 
 H                     4.11284  -2.55894   1.47256 
 C                     0.9438    1.09722   1.17477 
 C                     1.24312   0.07505   2.1952 
 O                     0.69511  -0.10006   3.25176 
 O                     1.76617   2.19386  -0.76805 
 C                    -0.68757   2.92283   0.5146 
 C                    -0.18005   1.8263    1.36138 
 C                    -1.80263   2.79162  -0.22431 
 C                     0.09687   4.19162   0.58644 
 C                    -2.11532   0.36371  -0.60139 
 H                    -0.82199   1.61359   2.23862 
 C                    -2.61465   1.5777   -0.32774 
 H                     1.00973   4.09846  -0.03729 
 H                     0.4211    4.4313    1.60665 
 H                    -0.46241   5.05602   0.20672 
 C                    -2.9405   -0.84834  -0.72441 
 H                    -1.04583   0.21451  -0.77712 
 H                    -2.17542   3.63348  -0.81761 
 H                    -3.68924   1.73954  -0.19643 
 C                    -3.98182  -1.11317   0.18033 
 C                    -2.67207  -1.76271  -1.75854 
 C                    -3.44365  -2.91909  -1.88819 
 C                    -4.48103  -3.17867  -0.98574 
 C                    -4.74608  -2.27567   0.0481 
 H                    -4.18825  -0.41753   0.9914 
 H                    -1.86608  -1.56519  -2.46314 
 H                    -3.23586  -3.62194  -2.69354 
 H                    -5.07834  -4.08239  -1.08747 
 H                    -5.54982  -2.47821   0.75436 
 

 GradGradGradGradGradGradGradGradGradGradGradGradGradGradGradGradGradGrad
 Berny optimization.
 Initialization pass.
 Forces and force constants read from input stream.
                           ----------------------------
                           !    Initial Parameters    !
                           ! (Angstroms and Degrees)  !
 --------------------------                            --------------------------
 ! Name  Definition              Value          Derivative Info.                !
 --------------------------------------------------------------------------------
 ! R1    R(1,2)                  1.4072         D2E/DX2 =    0.4394             !
 ! R2    R(1,6)                  1.3909         D2E/DX2 =    0.4805             !
 ! R3    R(1,7)                  1.092          D2E/DX2 =    0.2701             !
 ! R4    R(2,3)                  1.3906         D2E/DX2 =    0.4781             !
 ! R5    R(2,8)                  1.0887         D2E/DX2 =    0.2733             !
 ! R6    R(3,4)                  1.4101         D2E/DX2 =    0.4469             !
 ! R7    R(3,9)                  1.0949         D2E/DX2 =    0.2672             !
 ! R8    R(4,5)                  1.401          D2E/DX2 =    0.3781             !
 ! R9    R(4,10)                 1.4756         D2E/DX2 =    0.3633             !
 ! R10   R(5,6)                  1.4057         D2E/DX2 =    0.4481             !
 ! R11   R(5,11)                 1.378          D2E/DX2 =    0.3622             !
 ! R12   R(6,12)                 1.089          D2E/DX2 =    0.2727             !
 ! R13   R(10,13)                1.4932         D2E/DX2 =    0.339              !
 ! R14   R(10,16)                1.2138         D2E/DX2 =    0.841              !
 ! R15   R(11,14)                1.4159         D2E/DX2 =    0.3029             !
 ! R16   R(13,14)                1.475          D2E/DX2 =    0.353              !
 ! R17   R(13,18)                1.3526         D2E/DX2 =    0.6959             !
 ! R18   R(14,15)                1.203          D2E/DX2 =    0.8985             !
 ! R19   R(17,18)                1.4755         D2E/DX2 =    0.4058             !
 ! R20   R(17,19)                1.3441         D2E/DX2 =    0.7282             !
 ! R21   R(17,20)                1.4934         D2E/DX2 =    0.4047             !
 ! R22   R(18,22)                1.1076         D2E/DX2 =    0.2583             !
 ! R23   R(19,23)                1.4641         D2E/DX2 =    0.4315             !
 ! R24   R(19,29)                1.0953         D2E/DX2 =    0.2698             !
 ! R25   R(20,24)                1.1095         D2E/DX2 =    0.2576             !
 ! R26   R(20,25)                1.097          D2E/DX2 =    0.266              !
 ! R27   R(20,26)                1.0974         D2E/DX2 =    0.2663             !
 ! R28   R(21,23)                1.3409         D2E/DX2 =    0.7372             !
 ! R29   R(21,27)                1.4714         D2E/DX2 =    0.4239             !
 ! R30   R(21,28)                1.0941         D2E/DX2 =    0.2695             !
 ! R31   R(23,30)                1.0946         D2E/DX2 =    0.2695             !
 ! R32   R(27,31)                1.4046         D2E/DX2 =    0.454              !
 ! R33   R(27,32)                1.4063         D2E/DX2 =    0.4509             !
 ! R34   R(31,35)                1.3975         D2E/DX2 =    0.4644             !
 ! R35   R(31,36)                1.0883         D2E/DX2 =    0.2727             !
 ! R36   R(32,33)                1.3962         D2E/DX2 =    0.4674             !
 ! R37   R(32,37)                1.0886         D2E/DX2 =    0.2726             !
 ! R38   R(33,34)                1.3993         D2E/DX2 =    0.4605             !
 ! R39   R(33,38)                1.0889         D2E/DX2 =    0.2726             !
 ! R40   R(34,35)                1.398          D2E/DX2 =    0.4635             !
 ! R41   R(34,39)                1.088          D2E/DX2 =    0.273              !
 ! R42   R(35,40)                1.089          D2E/DX2 =    0.2725             !
 ! A1    A(2,1,6)              120.7708         D2E/DX2 =    0.0751             !
 ! A2    A(2,1,7)              119.5509         D2E/DX2 =    0.076              !
 ! A3    A(6,1,7)              119.6783         D2E/DX2 =    0.0761             !
 ! A4    A(1,2,3)              120.3084         D2E/DX2 =    0.0756             !
 ! A5    A(1,2,8)              119.5784         D2E/DX2 =    0.0759             !
 ! A6    A(3,2,8)              120.1132         D2E/DX2 =    0.0759             !
 ! A7    A(2,3,4)              120.389          D2E/DX2 =    0.0753             !
 ! A8    A(2,3,9)              121.1146         D2E/DX2 =    0.0758             !
 ! A9    A(4,3,9)              118.4965         D2E/DX2 =    0.0779             !
 ! A10   A(3,4,5)              117.9196         D2E/DX2 =    0.0716             !
 ! A11   A(3,4,10)             120.5746         D2E/DX2 =    0.0911             !
 ! A12   A(5,4,10)             121.5052         D2E/DX2 =    0.0654             !
 ! A13   A(4,5,6)              122.6611         D2E/DX2 =    0.0726             !
 ! A14   A(4,5,11)             122.3695         D2E/DX2 =    0.0742             !
 ! A15   A(6,5,11)             114.9663         D2E/DX2 =    0.1004             !
 ! A16   A(1,6,5)              117.9506         D2E/DX2 =    0.0735             !
 ! A17   A(1,6,12)             122.272          D2E/DX2 =    0.0722             !
 ! A18   A(5,6,12)             119.7774         D2E/DX2 =    0.0736             !
 ! A19   A(4,10,13)            115.3052         D2E/DX2 =    0.0705             !
 ! A20   A(4,10,16)            122.1389         D2E/DX2 =    0.1268             !
 ! A21   A(13,10,16)           122.5546         D2E/DX2 =    0.1242             !
 ! A22   A(5,11,14)            121.2157         D2E/DX2 =    0.0898             !
 ! A23   A(10,13,14)           119.6099         D2E/DX2 =    0.0755             !
 ! A24   A(10,13,18)           123.8531         D2E/DX2 =    0.1499             !
 ! A25   A(14,13,18)           116.533          D2E/DX2 =    0.1399             !
 ! A26   A(11,14,13)           119.243          D2E/DX2 =    0.0829             !
 ! A27   A(11,14,15)           112.7307         D2E/DX2 =    0.1402             !
 ! A28   A(13,14,15)           128.0247         D2E/DX2 =    0.1089             !
 ! A29   A(18,17,19)           121.8922         D2E/DX2 =    0.1155             !
 ! A30   A(18,17,20)           115.0305         D2E/DX2 =    0.1113             !
 ! A31   A(19,17,20)           123.0344         D2E/DX2 =    0.1163             !
 ! A32   A(13,18,17)           127.3893         D2E/DX2 =    0.153              !
 ! A33   A(13,18,22)           119.1637         D2E/DX2 =    0.1039             !
 ! A34   A(17,18,22)           113.4467         D2E/DX2 =    0.0955             !
 ! A35   A(17,19,23)           125.4419         D2E/DX2 =    0.1141             !
 ! A36   A(17,19,29)           120.339          D2E/DX2 =    0.0884             !
 ! A37   A(23,19,29)           114.2191         D2E/DX2 =    0.086              !
 ! A38   A(17,20,24)           109.4986         D2E/DX2 =    0.0926             !
 ! A39   A(17,20,25)           112.6817         D2E/DX2 =    0.093              !
 ! A40   A(17,20,26)           112.6362         D2E/DX2 =    0.0971             !
 ! A41   A(24,20,25)           107.3369         D2E/DX2 =    0.0427             !
 ! A42   A(24,20,26)           106.9139         D2E/DX2 =    0.0436             !
 ! A43   A(25,20,26)           107.478          D2E/DX2 =    0.0467             !
 ! A44   A(23,21,27)           123.6412         D2E/DX2 =    0.1039             !
 ! A45   A(23,21,28)           121.3508         D2E/DX2 =    0.0861             !
 ! A46   A(27,21,28)           114.9891         D2E/DX2 =    0.0856             !
 ! A47   A(19,23,21)           123.954          D2E/DX2 =    0.1033             !
 ! A48   A(19,23,30)           114.4187         D2E/DX2 =    0.0835             !
 ! A49   A(21,23,30)           121.5955         D2E/DX2 =    0.0857             !
 ! A50   A(21,27,31)           121.1445         D2E/DX2 =    0.1077             !
 ! A51   A(21,27,32)           119.3426         D2E/DX2 =    0.1058             !
 ! A52   A(31,27,32)           119.51           D2E/DX2 =    0.0793             !
 ! A53   A(27,31,35)           120.087          D2E/DX2 =    0.0765             !
 ! A54   A(27,31,36)           120.009          D2E/DX2 =    0.0778             !
 ! A55   A(35,31,36)           119.9013         D2E/DX2 =    0.0776             !
 ! A56   A(27,32,33)           120.0881         D2E/DX2 =    0.0766             !
 ! A57   A(27,32,37)           119.9549         D2E/DX2 =    0.0779             !
 ! A58   A(33,32,37)           119.9556         D2E/DX2 =    0.0775             !
 ! A59   A(32,33,34)           120.2296         D2E/DX2 =    0.076              !
 ! A60   A(32,33,38)           119.8552         D2E/DX2 =    0.0763             !
 ! A61   A(34,33,38)           119.9151         D2E/DX2 =    0.0762             !
 ! A62   A(33,34,35)           119.8458         D2E/DX2 =    0.0757             !
 ! A63   A(33,34,39)           120.0521         D2E/DX2 =    0.0759             !
 ! A64   A(35,34,39)           120.102          D2E/DX2 =    0.0759             !
 ! A65   A(31,35,34)           120.2375         D2E/DX2 =    0.0761             !
 ! A66   A(31,35,40)           119.8013         D2E/DX2 =    0.0763             !
 ! A67   A(34,35,40)           119.9611         D2E/DX2 =    0.0762             !
 ! D1    D(6,1,2,3)             -0.0219         D2E/DX2 =    0.0085             !
 ! D2    D(6,1,2,8)            179.9061         D2E/DX2 =    0.0079             !
 ! D3    D(7,1,2,3)           -179.9848         D2E/DX2 =    0.0078             !
 ! D4    D(7,1,2,8)             -0.0569         D2E/DX2 =    0.0088             !
 ! D5    D(2,1,6,5)              0.0819         D2E/DX2 =    0.008              !
 ! D6    D(2,1,6,12)          -179.8609         D2E/DX2 =    0.0076             !
 ! D7    D(7,1,6,5)           -179.9552         D2E/DX2 =    0.0083             !
 ! D8    D(7,1,6,12)             0.102          D2E/DX2 =    0.0088             !
 ! D9    D(1,2,3,4)             -0.1721         D2E/DX2 =    0.0082             !
 ! D10   D(1,2,3,9)            179.8202         D2E/DX2 =    0.008              !
 ! D11   D(8,2,3,4)            179.9004         D2E/DX2 =    0.0084             !
 ! D12   D(8,2,3,9)             -0.1073         D2E/DX2 =    0.009              !
 ! D13   D(2,3,4,5)              0.295          D2E/DX2 =    0.0067             !
 ! D14   D(2,3,4,10)          -179.9973         D2E/DX2 =    0.006              !
 ! D15   D(9,3,4,5)           -179.6975         D2E/DX2 =    0.0068             !
 ! D16   D(9,3,4,10)             0.0102         D2E/DX2 =    0.007              !
 ! D17   D(3,4,5,6)             -0.238          D2E/DX2 =    0.0057             !
 ! D18   D(3,4,5,11)           179.0911         D2E/DX2 =    0.0048             !
 ! D19   D(10,4,5,6)          -179.9428         D2E/DX2 =    0.0051             !
 ! D20   D(10,4,5,11)           -0.6137         D2E/DX2 =    0.0046             !
 ! D21   D(3,4,10,13)          174.5583         D2E/DX2 =    0.0056             !
 ! D22   D(3,4,10,16)           -5.0394         D2E/DX2 =    0.009              !
 ! D23   D(5,4,10,13)           -5.7447         D2E/DX2 =    0.0056             !
 ! D24   D(5,4,10,16)          174.6576         D2E/DX2 =    0.0068             !
 ! D25   D(4,5,6,1)              0.0516         D2E/DX2 =    0.0068             !
 ! D26   D(4,5,6,12)           179.9958         D2E/DX2 =    0.0066             !
 ! D27   D(11,5,6,1)          -179.3234         D2E/DX2 =    0.0059             !
 ! D28   D(11,5,6,12)            0.6209         D2E/DX2 =    0.0075             !
 ! D29   D(4,5,11,14)            2.6514         D2E/DX2 =    0.0036             !
 ! D30   D(6,5,11,14)         -177.9716         D2E/DX2 =    0.0045             !
 ! D31   D(4,10,13,14)          10.1612         D2E/DX2 =    0.0062             !
 ! D32   D(4,10,13,18)        -169.0872         D2E/DX2 =    0.0058             !
 ! D33   D(16,10,13,14)       -170.243          D2E/DX2 =    0.0071             !
 ! D34   D(16,10,13,18)         10.5087         D2E/DX2 =    0.0085             !
 ! D35   D(5,11,14,13)           2.0759         D2E/DX2 =    0.0051             !
 ! D36   D(5,11,14,15)        -178.3505         D2E/DX2 =    0.0084             !
 ! D37   D(10,13,14,11)         -8.6545         D2E/DX2 =    0.0068             !
 ! D38   D(10,13,14,15)        171.8447         D2E/DX2 =    0.0117             !
 ! D39   D(18,13,14,11)        170.6478         D2E/DX2 =    0.0058             !
 ! D40   D(18,13,14,15)         -8.853          D2E/DX2 =    0.0134             !
 ! D41   D(10,13,18,17)         -2.2751         D2E/DX2 =    0.0103             !
 ! D42   D(10,13,18,22)        177.957          D2E/DX2 =    0.014              !
 ! D43   D(14,13,18,17)        178.4553         D2E/DX2 =    0.0111             !
 ! D44   D(14,13,18,22)         -1.3125         D2E/DX2 =    0.0116             !
 ! D45   D(19,17,18,13)        110.8445         D2E/DX2 =    0.0077             !
 ! D46   D(19,17,18,22)        -69.3764         D2E/DX2 =    0.0064             !
 ! D47   D(20,17,18,13)        -71.4716         D2E/DX2 =    0.0115             !
 ! D48   D(20,17,18,22)        108.3074         D2E/DX2 =    0.0094             !
 ! D49   D(18,17,19,23)         -2.1731         D2E/DX2 =    0.009              !
 ! D50   D(18,17,19,29)        177.9217         D2E/DX2 =    0.0113             !
 ! D51   D(20,17,19,23)       -179.6697         D2E/DX2 =    0.0108             !
 ! D52   D(20,17,19,29)          0.4251         D2E/DX2 =    0.0094             !
 ! D53   D(18,17,20,24)         78.9301         D2E/DX2 =    0.013              !
 ! D54   D(18,17,20,25)        -40.4501         D2E/DX2 =    0.0115             !
 ! D55   D(18,17,20,26)       -162.2505         D2E/DX2 =    0.0122             !
 ! D56   D(19,17,20,24)       -103.4156         D2E/DX2 =    0.0119             !
 ! D57   D(19,17,20,25)        137.2042         D2E/DX2 =    0.0118             !
 ! D58   D(19,17,20,26)         15.4038         D2E/DX2 =    0.0115             !
 ! D59   D(17,19,23,21)        -50.2374         D2E/DX2 =    0.0082             !
 ! D60   D(17,19,23,30)        131.787          D2E/DX2 =    0.0072             !
 ! D61   D(29,19,23,21)        129.6729         D2E/DX2 =    0.0068             !
 ! D62   D(29,19,23,30)        -48.3027         D2E/DX2 =    0.0068             !
 ! D63   D(27,21,23,19)       -179.0112         D2E/DX2 =    0.0139             !
 ! D64   D(27,21,23,30)         -1.1754         D2E/DX2 =    0.0113             !
 ! D65   D(28,21,23,19)         -0.6741         D2E/DX2 =    0.0112             !
 ! D66   D(28,21,23,30)        177.1617         D2E/DX2 =    0.0139             !
 ! D67   D(23,21,27,31)        -42.7365         D2E/DX2 =    0.0057             !
 ! D68   D(23,21,27,32)        137.8887         D2E/DX2 =    0.0053             !
 ! D69   D(28,21,27,31)        138.8302         D2E/DX2 =    0.0051             !
 ! D70   D(28,21,27,32)        -40.5446         D2E/DX2 =    0.0054             !
 ! D71   D(21,27,31,35)       -179.5756         D2E/DX2 =    0.0068             !
 ! D72   D(21,27,31,36)         -0.1676         D2E/DX2 =    0.0072             !
 ! D73   D(32,27,31,35)         -0.2019         D2E/DX2 =    0.0068             !
 ! D74   D(32,27,31,36)        179.2061         D2E/DX2 =    0.007              !
 ! D75   D(21,27,32,33)        179.8775         D2E/DX2 =    0.0067             !
 ! D76   D(21,27,32,37)         -0.551          D2E/DX2 =    0.0071             !
 ! D77   D(31,27,32,33)          0.4924         D2E/DX2 =    0.0068             !
 ! D78   D(31,27,32,37)       -179.9361         D2E/DX2 =    0.0069             !
 ! D79   D(27,31,35,34)         -0.1532         D2E/DX2 =    0.0083             !
 ! D80   D(27,31,35,40)        179.7697         D2E/DX2 =    0.0081             !
 ! D81   D(36,31,35,34)       -179.5619         D2E/DX2 =    0.008              !
 ! D82   D(36,31,35,40)          0.3611         D2E/DX2 =    0.0088             !
 ! D83   D(27,32,33,34)         -0.4293         D2E/DX2 =    0.0082             !
 ! D84   D(27,32,33,38)        179.6773         D2E/DX2 =    0.0081             !
 ! D85   D(37,32,33,34)        179.9992         D2E/DX2 =    0.008              !
 ! D86   D(37,32,33,38)          0.1058         D2E/DX2 =    0.0088             !
 ! D87   D(32,33,34,35)          0.0725         D2E/DX2 =    0.0084             !
 ! D88   D(32,33,34,39)       -179.7941         D2E/DX2 =    0.0081             !
 ! D89   D(38,33,34,35)        179.9659         D2E/DX2 =    0.0079             !
 ! D90   D(38,33,34,39)          0.0993         D2E/DX2 =    0.0088             !
 ! D91   D(33,34,35,31)          0.2194         D2E/DX2 =    0.0084             !
 ! D92   D(33,34,35,40)       -179.7035         D2E/DX2 =    0.008              !
 ! D93   D(39,34,35,31)       -179.9142         D2E/DX2 =    0.0081             !
 ! D94   D(39,34,35,40)          0.163          D2E/DX2 =    0.0088             !
 --------------------------------------------------------------------------------
 Trust Radius=3.00D-01 FncErr=1.00D-07 GrdErr=1.00D-06
 Number of steps in this run= 213 maximum allowed number of steps= 240.
 GradGradGradGradGradGradGradGradGradGradGradGradGradGradGradGradGradGrad

                          Input orientation:                          
 ---------------------------------------------------------------------
 Center     Atomic      Atomic             Coordinates (Angstroms)
 Number     Number       Type             X           Y           Z
 ---------------------------------------------------------------------
      1          6           0        4.841578   -1.788197   -0.428165
      2          6           0        4.699907   -0.790953   -1.410904
      3          6           0        3.734675    0.200297   -1.270815
      4          6           0        2.885459    0.215042   -0.145167
      5          6           0        3.053493   -0.789821    0.816570
      6          6           0        4.023027   -1.800531    0.696280
      7          1           0        5.603790   -2.560519   -0.550563
      8          1           0        5.352094   -0.798976   -2.282594
      9          1           0        3.614918    0.984143   -2.025833
     10          6           0        1.859822    1.264881    0.007594
     11          8           0        2.287006   -0.852250    1.959972
     12          1           0        4.112841   -2.558942    1.472564
     13          6           0        0.943796    1.097215    1.174770
     14          6           0        1.243122    0.075046    2.195195
     15          8           0        0.695111   -0.100062    3.251761
     16          8           0        1.766168    2.193862   -0.768051
     17          6           0       -0.687573    2.922827    0.514598
     18          6           0       -0.180051    1.826296    1.361382
     19          6           0       -1.802628    2.791620   -0.224312
     20          6           0        0.096872    4.191616    0.586444
     21          6           0       -2.115321    0.363713   -0.601387
     22          1           0       -0.821987    1.613589    2.238625
     23          6           0       -2.614650    1.577698   -0.327738
     24          1           0        1.009734    4.098458   -0.037291
     25          1           0        0.421096    4.431297    1.606646
     26          1           0       -0.462405    5.056023    0.206722
     27          6           0       -2.940502   -0.848335   -0.724407
     28          1           0       -1.045828    0.214511   -0.777117
     29          1           0       -2.175420    3.633476   -0.817610
     30          1           0       -3.689237    1.739543   -0.196433
     31          6           0       -3.981823   -1.113169    0.180331
     32          6           0       -2.672073   -1.762708   -1.758542
     33          6           0       -3.443652   -2.919089   -1.888188
     34          6           0       -4.481030   -3.178669   -0.985744
     35          6           0       -4.746081   -2.275672    0.048100
     36          1           0       -4.188253   -0.417528    0.991403
     37          1           0       -1.866075   -1.565191   -2.463144
     38          1           0       -3.235862   -3.621939   -2.693536
     39          1           0       -5.078344   -4.082387   -1.087467
     40          1           0       -5.549821   -2.478211    0.754357
 ---------------------------------------------------------------------
                    Distance matrix (angstroms):
                    1          2          3          4          5
     1  C    0.000000
     2  C    1.407246   0.000000
     3  C    2.426809   1.390638   0.000000
     4  C    2.814153   2.430296   1.410131   0.000000
     5  C    2.396532   2.769895   2.408634   1.401044   0.000000
     6  C    1.390883   2.432620   2.820624   2.462647   1.405703
     7  H    1.091984   2.165307   3.410932   3.906073   3.392409
     8  H    2.162890   1.088694   2.153668   3.417765   3.858558
     9  H    3.426822   2.169402   1.094901   2.158826   3.397264
    10  C    4.289760   3.782152   2.506540   1.475611   2.510198
    11  O    3.620087   4.145920   3.693452   2.434927   1.377958
    12  H    2.176666   3.432902   3.909289   3.437806   2.163870
    13  C    5.107613   4.935510   3.817637   2.508091   2.853074
    14  C    4.827274   5.069839   4.270451   2.862545   2.434347
    15  O    5.795243   6.185157   5.457367   4.054138   3.459464
    16  O    5.042863   4.234289   2.846418   2.357228   3.615328
    17  C    7.324893   6.820899   5.491461   4.531440   5.279253
    18  C    6.440792   6.192702   4.989731   3.776663   4.194841
    19  C    8.072283   7.518364   6.202568   5.350063   6.123077
    20  C    7.700638   7.071303   5.710836   4.911681   5.797351
    21  C    7.284172   6.959591   5.890441   5.023748   5.482507
    22  H    7.124597   7.042173   5.922561   4.624235   4.776815
    23  C    8.181361   7.764438   6.565101   5.669335   6.248394
    24  H    7.034808   6.277781   4.913506   4.314035   5.366684
    25  H    7.897039   7.394980   6.095978   5.188327   5.900323
    26  H    8.682089   7.965758   6.586097   5.896365   6.848894
    27  C    7.844225   7.671403   6.779099   5.950472   6.189185
    28  H    6.228496   5.867377   4.805949   3.981756   4.511425
    29  H    8.876061   8.197420   6.849915   6.144133   7.041139
    30  H    9.234363   8.846247   7.657548   6.749323   7.272432
    31  C    8.870081   8.832230   7.960864   7.002118   7.071423
    32  C    7.630564   7.443873   6.718459   6.115606   6.352938
    33  C    8.488558   8.430558   7.851121   7.274513   7.352713
    34  C    9.442210   9.495870   8.887997   8.154079   8.107032
    35  C    9.611850   9.672630   8.932703   8.030032   7.976945
    36  H    9.242930   9.214658   8.262695   7.192311   7.253417
    37  H    7.013093   6.694682   5.992245   5.578470   5.963210
    38  H    8.587174   8.522679   8.076014   7.660756   7.739362
    39  H   10.203080  10.322419   9.800220   9.098241   8.977367
    40  H   10.481205  10.610943   9.873074   8.900377   8.767642
                    6          7          8          9         10
     6  C    0.000000
     7  H    2.151978   0.000000
     8  H    3.412217   2.483207   0.000000
     9  H    3.915464   4.323964   2.502643   0.000000
    10  C    3.814511   5.381684   4.658372   2.700741   0.000000
    11  O    2.347323   4.496891   5.234211   4.585012   2.911445
    12  H    1.088977   2.513160   4.328330   5.004014   4.673741
    13  C    4.255296   6.170197   5.914558   4.170316   1.493156
    14  C    3.673201   5.787989   6.139883   4.926353   2.565468
    15  O    4.527373   6.678821   7.266709   6.128113   3.707323
    16  O    4.815896   6.113819   4.910172   2.542305   1.213838
    17  C    6.673295   8.413257   7.625856   5.359451   3.081405
    18  C    5.591252   7.506830   7.125675   5.155990   2.511774
    19  C    7.474864   9.143679   8.265528   5.988510   3.974702
    20  C    7.164676   8.786937   7.794533   5.430333   3.465377
    21  C    6.636807   8.254598   7.742131   5.937139   4.121253
    22  H    6.124476   8.154346   8.023788   6.186108   3.505880
    23  C    7.517965   9.204197   8.540436   6.484084   4.497911
    24  H    6.664543   8.106218   6.919706   4.521088   2.958686
    25  H    7.255229   8.966569   8.172924   5.939552   3.827935
    26  H    8.207990   9.766469   8.618939   6.179731   4.450298
    27  C    7.170479   8.715889   8.437863   6.930023   5.295717
    28  H    5.650184   7.208990   6.650340   4.886121   3.187766
    29  H    8.380993   9.947512   8.857555   6.481264   4.751251
    30  H    8.532765  10.245794   9.619866   7.567563   5.573059
    31  C    8.050857   9.721780   9.658505   8.183908   6.309499
    32  C    7.131055   8.401525   8.098806   6.866068   5.729189
    33  C    7.980097   9.152815   9.056246   8.067067   7.016155
    34  C    8.777668  10.113115  10.199759   9.162705   7.806296
    35  C    8.805859  10.371083  10.468329   9.210532   7.495006
    36  H    8.332161  10.141705  10.093700   8.482799   6.354336
    37  H    6.687217   7.774801   7.260967   6.060662   5.291140
    38  H    8.215829   9.157423   9.049364   8.282210   7.559306
    39  H    9.551103  10.803348  11.000143  10.105596   8.827830
    40  H    9.596981  11.229988  11.440920  10.183800   8.334939
                   11         12         13         14         15
    11  O    0.000000
    12  H    2.546377   0.000000
    13  C    2.494227   4.847578   0.000000
    14  C    1.415945   3.961739   1.475023   0.000000
    15  O    2.183721   4.570833   2.410230   1.203042   0.000000
    16  O    4.122157   5.754683   2.377706   3.680188   4.750594
    17  C    5.018808   7.349249   2.535755   3.829079   4.306011
    18  C    3.690432   6.137719   1.352559   2.405731   2.837304
    19  C    5.896948   8.154795   3.517284   4.744511   5.165618
    20  C    5.667791   7.904635   3.261706   4.565974   5.087269
    21  C    5.236374   7.185624   3.612611   4.379879   4.791697
    22  H    3.977920   6.507641   2.125187   2.575592   2.502924
    23  C    5.929966   8.100124   3.892420   4.848253   5.155794
    24  H    5.489079   7.498661   3.237422   4.607202   5.342698
    25  H    5.614475   7.906352   3.402328   4.472029   4.828530
    26  H    6.748395   8.973457   4.311227   5.627875   6.098960
    27  C    5.876457   7.583041   4.741288   5.184536   5.439440
    28  H    4.442681   6.274151   2.923634   3.754115   4.400191
    29  H    6.910134   9.117739   4.486837   5.781509   6.224069
    30  H    6.861702   9.062833   4.874195   5.728752   5.873389
    31  C    6.521765   8.323684   5.489666   5.724647   5.686280
    32  C    6.264882   7.557056   5.464246   5.859874   6.261426
    33  C    7.205595   8.277980   6.690449   6.899617   7.176026
    34  C    7.739236   8.960020   7.237385   7.312383   7.363878
    35  C    7.426015   8.977184   6.709728   6.782805   6.678570
    36  H    6.561714   8.586346   5.354064   5.584942   5.390477
    37  H    6.109036   7.226671   5.312080   5.835889   6.431673
    38  H    7.734881   8.514093   7.396198   7.591356   7.950014
    39  H    8.600526   9.661911   8.259066   8.247488   8.247460
    40  H    8.094017   9.689653   7.424788   7.398595   7.133849
                   16         17         18         19         20
    16  O    0.000000
    17  C    2.863114   0.000000
    18  C    2.908154   1.475467   0.000000
    19  C    3.659135   1.344080   2.465569   0.000000
    20  C    2.934660   1.493433   2.504387   2.495078   0.000000
    21  C    4.294552   3.135754   3.120398   2.476832   4.577945
    22  H    4.009409   2.168972   1.107647   2.900943   3.196909
    23  C    4.445796   2.496503   2.973584   1.464132   3.875648
    24  H    2.175704   2.137181   2.921403   3.106796   1.109523
    25  H    3.529096   2.167302   2.684690   3.314498   1.096987
    26  H    3.756153   2.167029   3.441526   2.666366   1.097351
    27  C    5.604428   4.564262   4.373129   3.846313   6.028688
    28  H    3.438784   3.021895   2.814356   2.742231   4.356883
    29  H    4.196553   2.119785   3.463438   1.095307   2.728772
    30  H    5.504053   3.303894   3.840404   2.160309   4.578229
    31  C    6.698902   5.220448   4.948617   4.489989   6.703837
    32  C    6.027728   5.573118   5.368896   4.883820   6.972804
    33  C    7.385066   6.891831   6.612827   6.170384   8.319930
    34  C    8.242509   7.339591   7.004077   6.587713   8.817600
    35  C    7.940543   6.611619   6.276901   5.866479   8.097520
    36  H    6.735738   4.862106   4.608396   4.179450   6.306385
    37  H    5.495181   5.513449   5.382551   4.898795   6.803968
    38  H    7.908940   7.721390   7.447389   7.020325   9.105879
    39  H    9.291968   8.421313   8.056219   7.663376   9.901715
    40  H    8.813041   7.271186   6.908812   6.539906   8.740705
                   21         22         23         24         25
    21  C    0.000000
    22  H    3.361632   0.000000
    23  C    1.340885   3.130678   0.000000
    24  H    4.902295   3.835306   4.424336   0.000000
    25  H    5.277695   3.143904   4.593541   1.777584   0.000000
    26  H    5.040133   4.013512   4.125112   1.773039   1.769363
    27  C    1.471434   4.396446   2.479750   6.367673   6.678972
    28  H    1.094056   3.332000   2.126364   4.456200   5.061173
    29  H    3.277455   3.905419   2.158500   3.312146   3.640801
    30  H    2.129344   3.763840   1.094610   5.260241   5.233686
    31  C    2.505213   4.653638   3.060729   7.219699   7.222269
    32  C    2.484079   5.549734   3.634393   7.132438   7.697914
    33  C    3.767905   6.667000   4.831495   8.514953   9.009901
    34  C    4.277006   6.837462   5.151638   9.165404   9.416098
    35  C    3.782735   5.943338   4.419583   8.588727   8.608845
    36  H    2.728436   4.124651   2.863090   6.962141   6.718313
    37  H    2.692384   5.770736   3.872735   6.799409   7.599487
    38  H    4.638763   7.587078   5.746227   9.202459   9.834608
    39  H    5.365033   7.850070   6.219609  10.251526  10.487369
    40  H    4.659438   6.426375   5.122163   9.322395   9.171671
                   26         27         28         29         30
    26  H    0.000000
    27  C    6.470658   0.000000
    28  H    4.974792   2.173065   0.000000
    29  H    2.450983   4.547600   3.600964   0.000000
    30  H    4.644784   2.745264   3.106530   2.502895   0.000000
    31  C    7.102530   1.404648   3.361474   5.175869   2.892321
    32  C    7.432361   1.406260   2.741763   5.500074   3.967439
    33  C    8.768061   2.428079   4.099206   6.759486   4.962378
    34  C    9.240210   2.805705   4.832992   7.193707   5.043685
    35  C    8.492867   2.427792   4.535842   6.501983   4.159167
    36  H    6.667640   2.164828   3.660870   4.871823   2.512554
    37  H    7.275916   2.165983   2.585117   5.461649   4.402632
    38  H    9.560888   3.414321   4.815315   7.568665   5.931826
    39  H   10.319513   3.893748   5.900918   8.248293   6.051316
    40  H    9.107491   3.413471   5.466454   7.156143   4.706934
                   31         32         33         34         35
    31  C    0.000000
    32  C    2.428286   0.000000
    33  C    2.798168   1.396195   0.000000
    34  C    2.423887   2.423734   1.399264   0.000000
    35  C    1.397494   2.797963   2.420644   1.398030   0.000000
    36  H    1.088287   3.416213   3.886423   3.408626   2.157242
    37  H    3.415944   1.088627   2.156934   3.409400   3.886588
    38  H    3.887094   2.156110   1.088926   2.159510   3.407310
    39  H    3.409681   3.409016   2.160239   1.088043   2.159660
    40  H    2.156725   3.886906   3.407839   2.158913   1.088953
                   36         37         38         39         40
    36  H    0.000000
    37  H    4.317816   0.000000
    38  H    4.975347   2.481856   0.000000
    39  H    4.306408   4.306673   2.487209   0.000000
    40  H    2.481224   4.975530   4.307028   2.487566   0.000000
 Stoichiometry    C21H16O3
 Framework group  C1[X(C21H16O3)]
 Deg. of freedom   114
 Full point group                 C1      NOp   1
 Largest Abelian subgroup         C1      NOp   1
 Largest concise Abelian subgroup C1      NOp   1
                         Standard orientation:                         
 ---------------------------------------------------------------------
 Center     Atomic      Atomic             Coordinates (Angstroms)
 Number     Number       Type             X           Y           Z
 ---------------------------------------------------------------------
      1          6           0        4.282237   -2.763561   -0.451867
      2          6           0        4.199276   -1.981158   -1.618617
      3          6           0        3.433838   -0.820212   -1.632127
      4          6           0        2.729983   -0.416385   -0.478879
      5          6           0        2.835163   -1.215338    0.667217
      6          6           0        3.603796   -2.391710    0.703987
      7          1           0        4.887096   -3.672717   -0.454966
      8          1           0        4.739571   -2.289602   -2.512037
      9          1           0        3.362344   -0.200085   -2.531649
     10          6           0        1.916507    0.814708   -0.488672
     11          8           0        2.201530   -0.897416    1.848827
     12          1           0        3.652551   -2.977450    1.620721
     13          6           0        1.121540    1.064270    0.750384
     14          6           0        1.359036    0.236301    1.947779
     15          8           0        0.911048    0.387413    3.054026
     16          8           0        1.892387    1.565167   -1.442418
     17          6           0       -0.247382    2.986356   -0.177889
     18          6           0        0.162354    2.012455    0.851983
     19          6           0       -1.444200    2.916081   -0.785539
     20          6           0        0.739925    4.073970   -0.447448
     21          6           0       -2.195887    0.564216   -0.589607
     22          1           0       -0.403933    2.108068    1.799115
     23          6           0       -2.452941    1.879824   -0.556861
     24          1           0        1.549178    3.686160   -1.099946
     25          1           0        1.211347    4.453623    0.467433
     26          1           0        0.293102    4.930543   -0.967844
     27          6           0       -3.219399   -0.471819   -0.379433
     28          1           0       -1.192439    0.185505   -0.805542
     29          1           0       -1.735911    3.672332   -1.522212
     30          1           0       -3.464243    2.262495   -0.386556
     31          6           0       -4.182576   -0.346233    0.635237
     32          6           0       -3.223760   -1.612941   -1.201254
     33          6           0       -4.186250   -2.606843   -1.013816
     34          6           0       -5.144948   -2.477415   -0.002833
     35          6           0       -5.139198   -1.347911    0.820986
     36          1           0       -4.178710    0.527328    1.284270
     37          1           0       -2.479970   -1.718211   -1.989164
     38          1           0       -4.189341   -3.486406   -1.655781
     39          1           0       -5.891620   -3.255295    0.142842
     40          1           0       -5.881426   -1.247547    1.611457
 ---------------------------------------------------------------------
 Rotational constants (GHZ):      0.3076170      0.1534776      0.1270207
 Standard basis: 6-31+G(d,p) (6D, 7F)
 There are   536 symmetry adapted basis functions of A   symmetry.
 Integral buffers will be    131072 words long.
 Raffenetti 2 integral format.
 Two-electron integral symmetry is turned on.
   536 basis functions,   880 primitive gaussians,   536 cartesian basis functions
    83 alpha electrons       83 beta electrons
       nuclear repulsion energy      1856.1665549229 Hartrees.
 NAtoms=   40 NActive=   40 NUniq=   40 SFac= 7.50D-01 NAtFMM=   80 NAOKFM=F Big=F
 ------------------------------------------------------------------------------
 Polarizable Continuum Model (PCM)
 =================================
 Model                : PCM.
 Atomic radii         : UFF (Universal Force Field).
 Polarization charges : Total charges.
 Charge compensation  : None.
 Solution method      : Matrix inversion.
 Cavity type          : Scaled VdW (van der Waals Surface) (Alpha=1.100).
 Cavity algorithm     : GePol (No added spheres)
                        Default sphere list used, NSphG=   40.
                        Lebedev-Laikov grids with approx.  5.0 points / Ang**2.
                        Smoothing algorithm: Karplus/York (Gamma=1.0000).
                        Polarization charges: spherical gaussians, with
                                              point-specific exponents (IZeta= 3).
                        Self-potential: point-specific (ISelfS= 7).
                        Self-field    : sphere-specific E.n sum rule (ISelfD= 2).
 1st derivatives      : Analytical E(r).r(x)/FMM algorithm (CHGder, D1EAlg=3).
                        Cavity 1st derivative terms included.
 Solvent              : Dichloromethane, Eps=   8.930000 Eps(inf)=   2.028346
 ------------------------------------------------------------------------------
 One-electron integrals computed using PRISM.
 NBasis=   536 RedAO= T  NBF=   536
 NBsUse=   534 1.00D-06 NBFU=   534
 Harris functional with IExCor= 1009 diagonalized for initial guess.
 ExpMin= 4.38D-02 ExpMax= 5.48D+03 ExpMxC= 8.25D+02 IAcc=3 IRadAn=         5 AccDes= 0.00D+00
 HarFok:  IExCor= 1009 AccDes= 0.00D+00 IRadAn=         5 IDoV= 1
 ScaDFX=  1.000000  1.000000  1.000000  1.000000
 FoFCou: FMM=F IPFlag=           0 FMFlag=      100000 FMFlg1=           0
         NFxFlg=           0 DoJE=T BraDBF=F KetDBF=T FulRan=T
         Omega=  0.000000  0.000000  1.000000  0.000000  0.000000 ICntrl=     500 IOpCl=  0
         NMat0=    1 NMatS0=    1 NMatT0=    0 NMatD0=    1 NMtDS0=    0 NMtDT0=    0
         I1Cent=           4 NGrid=           0.
 Petite list used in FoFCou.
 Initial guess orbital symmetries:
       Occupied  (A) (A) (A) (A) (A) (A) (A) (A) (A) (A) (A) (A)
                 (A) (A) (A) (A) (A) (A) (A) (A) (A) (A) (A) (A)
                 (A) (A) (A) (A) (A) (A) (A) (A) (A) (A) (A) (A)
                 (A) (A) (A) (A) (A) (A) (A) (A) (A) (A) (A) (A)
                 (A) (A) (A) (A) (A) (A) (A) (A) (A) (A) (A) (A)
                 (A) (A) (A) (A) (A) (A) (A) (A) (A) (A) (A) (A)
                 (A) (A) (A) (A) (A) (A) (A) (A) (A) (A) (A)
       Virtual   (A) (A) (A) (A) (A) (A) (A) (A) (A) (A) (A) (A)
                 (A) (A) (A) (A) (A) (A) (A) (A) (A) (A) (A) (A)
                 (A) (A) (A) (A) (A) (A) (A) (A) (A) (A) (A) (A)
                 (A) (A) (A) (A) (A) (A) (A) (A) (A) (A) (A) (A)
                 (A) (A) (A) (A) (A) (A) (A) (A) (A) (A) (A) (A)
                 (A) (A) (A) (A) (A) (A) (A) (A) (A) (A) (A) (A)
                 (A) (A) (A) (A) (A) (A) (A) (A) (A) (A) (A) (A)
                 (A) (A) (A) (A) (A) (A) (A) (A) (A) (A) (A) (A)
                 (A) (A) (A) (A) (A) (A) (A) (A) (A) (A) (A) (A)
                 (A) (A) (A) (A) (A) (A) (A) (A) (A) (A) (A) (A)
                 (A) (A) (A) (A) (A) (A) (A) (A) (A) (A) (A) (A)
                 (A) (A) (A) (A) (A) (A) (A) (A) (A) (A) (A) (A)
                 (A) (A) (A) (A) (A) (A) (A) (A) (A) (A) (A) (A)
                 (A) (A) (A) (A) (A) (A) (A) (A) (A) (A) (A) (A)
                 (A) (A) (A) (A) (A) (A) (A) (A) (A) (A) (A) (A)
                 (A) (A) (A) (A) (A) (A) (A) (A) (A) (A) (A) (A)
                 (A) (A) (A) (A) (A) (A) (A) (A) (A) (A) (A) (A)
                 (A) (A) (A) (A) (A) (A) (A) (A) (A) (A) (A) (A)
                 (A) (A) (A) (A) (A) (A) (A) (A) (A) (A) (A) (A)
                 (A) (A) (A) (A) (A) (A) (A) (A) (A) (A) (A) (A)
                 (A) (A) (A) (A) (A) (A) (A) (A) (A) (A) (A) (A)
                 (A) (A) (A) (A) (A) (A) (A) (A) (A) (A) (A) (A)
                 (A) (A) (A) (A) (A) (A) (A) (A) (A) (A) (A) (A)
                 (A) (A) (A) (A) (A) (A) (A) (A) (A) (A) (A) (A)
                 (A) (A) (A) (A) (A) (A) (A) (A) (A) (A) (A) (A)
                 (A) (A) (A) (A) (A) (A) (A) (A) (A) (A) (A) (A)
                 (A) (A) (A) (A) (A) (A) (A) (A) (A) (A) (A) (A)
                 (A) (A) (A) (A) (A) (A) (A) (A) (A) (A) (A) (A)
                 (A) (A) (A) (A) (A) (A) (A) (A) (A) (A) (A) (A)
                 (A) (A) (A) (A) (A) (A) (A) (A) (A) (A) (A) (A)
                 (A) (A) (A) (A) (A) (A) (A) (A) (A) (A) (A) (A)
                 (A) (A) (A) (A) (A) (A) (A) (A) (A) (A) (A) (A)
                 (A) (A) (A) (A) (A) (A) (A) (A) (A) (A) (A) (A)
                 (A) (A) (A) (A) (A) (A) (A) (A) (A) (A) (A) (A)
                 (A) (A) (A) (A) (A) (A) (A) (A) (A) (A) (A) (A)
                 (A) (A) (A) (A) (A) (A) (A) (A) (A) (A) (A) (A)
                 (A) (A) (A) (A) (A) (A) (A) (A) (A) (A) (A) (A)
                 (A) (A) (A) (A) (A) (A) (A)
 The electronic state of the initial guess is 1-A.
 Requested convergence on RMS density matrix=1.00D-08 within 128 cycles.
 Requested convergence on MAX density matrix=1.00D-06.
 Requested convergence on             energy=1.00D-06.
 No special actions if energy rises.
 Error on total polarization charges =  0.01851
 SCF Done:  E(RM06) =  -1034.85174237     A.U. after   16 cycles
             Convg  =    0.8243D-08             -V/T =  2.0111

 **********************************************************************

            Population analysis using the SCF density.

 **********************************************************************

 Orbital symmetries:
       Occupied  (A) (A) (A) (A) (A) (A) (A) (A) (A) (A) (A) (A)
                 (A) (A) (A) (A) (A) (A) (A) (A) (A) (A) (A) (A)
                 (A) (A) (A) (A) (A) (A) (A) (A) (A) (A) (A) (A)
                 (A) (A) (A) (A) (A) (A) (A) (A) (A) (A) (A) (A)
                 (A) (A) (A) (A) (A) (A) (A) (A) (A) (A) (A) (A)
                 (A) (A) (A) (A) (A) (A) (A) (A) (A) (A) (A) (A)
                 (A) (A) (A) (A) (A) (A) (A) (A) (A) (A) (A)
       Virtual   (A) (A) (A) (A) (A) (A) (A) (A) (A) (A) (A) (A)
                 (A) (A) (A) (A) (A) (A) (A) (A) (A) (A) (A) (A)
                 (A) (A) (A) (A) (A) (A) (A) (A) (A) (A) (A) (A)
                 (A) (A) (A) (A) (A) (A) (A) (A) (A) (A) (A) (A)
                 (A) (A) (A) (A) (A) (A) (A) (A) (A) (A) (A) (A)
                 (A) (A) (A) (A) (A) (A) (A) (A) (A) (A) (A) (A)
                 (A) (A) (A) (A) (A) (A) (A) (A) (A) (A) (A) (A)
                 (A) (A) (A) (A) (A) (A) (A) (A) (A) (A) (A) (A)
                 (A) (A) (A) (A) (A) (A) (A) (A) (A) (A) (A) (A)
                 (A) (A) (A) (A) (A) (A) (A) (A) (A) (A) (A) (A)
                 (A) (A) (A) (A) (A) (A) (A) (A) (A) (A) (A) (A)
                 (A) (A) (A) (A) (A) (A) (A) (A) (A) (A) (A) (A)
                 (A) (A) (A) (A) (A) (A) (A) (A) (A) (A) (A) (A)
                 (A) (A) (A) (A) (A) (A) (A) (A) (A) (A) (A) (A)
                 (A) (A) (A) (A) (A) (A) (A) (A) (A) (A) (A) (A)
                 (A) (A) (A) (A) (A) (A) (A) (A) (A) (A) (A) (A)
                 (A) (A) (A) (A) (A) (A) (A) (A) (A) (A) (A) (A)
                 (A) (A) (A) (A) (A) (A) (A) (A) (A) (A) (A) (A)
                 (A) (A) (A) (A) (A) (A) (A) (A) (A) (A) (A) (A)
                 (A) (A) (A) (A) (A) (A) (A) (A) (A) (A) (A) (A)
                 (A) (A) (A) (A) (A) (A) (A) (A) (A) (A) (A) (A)
                 (A) (A) (A) (A) (A) (A) (A) (A) (A) (A) (A) (A)
                 (A) (A) (A) (A) (A) (A) (A) (A) (A) (A) (A) (A)
                 (A) (A) (A) (A) (A) (A) (A) (A) (A) (A) (A) (A)
                 (A) (A) (A) (A) (A) (A) (A) (A) (A) (A) (A) (A)
                 (A) (A) (A) (A) (A) (A) (A) (A) (A) (A) (A) (A)
                 (A) (A) (A) (A) (A) (A) (A) (A) (A) (A) (A) (A)
                 (A) (A) (A) (A) (A) (A) (A) (A) (A) (A) (A) (A)
                 (A) (A) (A) (A) (A) (A) (A) (A) (A) (A) (A) (A)
                 (A) (A) (A) (A) (A) (A) (A) (A) (A) (A) (A) (A)
                 (A) (A) (A) (A) (A) (A) (A) (A) (A) (A) (A) (A)
                 (A) (A) (A) (A) (A) (A) (A) (A) (A) (A) (A) (A)
                 (A) (A) (A) (A) (A) (A) (A) (A) (A) (A) (A) (A)
                 (A) (A) (A) (A) (A) (A) (A) (A) (A) (A) (A) (A)
                 (A) (A) (A) (A) (A) (A) (A) (A) (A) (A) (A) (A)
                 (A) (A) (A) (A) (A) (A) (A) (A) (A) (A) (A) (A)
                 (A) (A) (A) (A) (A) (A) (A) (A) (A) (A) (A) (A)
                 (A) (A) (A) (A) (A) (A) (A)
 The electronic state is 1-A.
 Alpha  occ. eigenvalues --  -19.31534 -19.25613 -19.24693 -10.42643 -10.37759
 Alpha  occ. eigenvalues --  -10.35873 -10.32990 -10.30819 -10.29475 -10.29286
 Alpha  occ. eigenvalues --  -10.29210 -10.29115 -10.28536 -10.28217 -10.28083
 Alpha  occ. eigenvalues --  -10.27883 -10.27773 -10.27659 -10.27245 -10.27233
 Alpha  occ. eigenvalues --  -10.27170 -10.27156 -10.27090 -10.25697  -1.15508
 Alpha  occ. eigenvalues --   -1.08977  -1.07967  -0.89208  -0.88193  -0.87503
 Alpha  occ. eigenvalues --   -0.83642  -0.81003  -0.79229  -0.78330  -0.76475
 Alpha  occ. eigenvalues --   -0.75809  -0.71857  -0.69937  -0.66452  -0.65901
 Alpha  occ. eigenvalues --   -0.63211  -0.62835  -0.61979  -0.59803  -0.58576
 Alpha  occ. eigenvalues --   -0.56049  -0.53868  -0.53126  -0.51794  -0.50648
 Alpha  occ. eigenvalues --   -0.50430  -0.49504  -0.48405  -0.48045  -0.46918
 Alpha  occ. eigenvalues --   -0.46803  -0.46098  -0.45861  -0.45699  -0.44665
 Alpha  occ. eigenvalues --   -0.43865  -0.43522  -0.42481  -0.42170  -0.41808
 Alpha  occ. eigenvalues --   -0.41245  -0.39695  -0.38854  -0.38409  -0.38164
 Alpha  occ. eigenvalues --   -0.37249  -0.36822  -0.35955  -0.35507  -0.33125
 Alpha  occ. eigenvalues --   -0.31830  -0.31610  -0.29389  -0.29057  -0.27747
 Alpha  occ. eigenvalues --   -0.27193  -0.26758  -0.24000
 Alpha virt. eigenvalues --   -0.10563  -0.04906  -0.04319  -0.02548  -0.02039
 Alpha virt. eigenvalues --   -0.01934  -0.01608  -0.01601  -0.01447  -0.00920
 Alpha virt. eigenvalues --   -0.00501  -0.00301  -0.00040   0.00271   0.00710
 Alpha virt. eigenvalues --    0.00771   0.00984   0.01326   0.01656   0.02050
 Alpha virt. eigenvalues --    0.02305   0.02835   0.03154   0.03967   0.04147
 Alpha virt. eigenvalues --    0.04440   0.04534   0.04792   0.05589   0.05773
 Alpha virt. eigenvalues --    0.06236   0.06686   0.06769   0.06997   0.07616
 Alpha virt. eigenvalues --    0.07868   0.08077   0.08762   0.08957   0.09193
 Alpha virt. eigenvalues --    0.09507   0.09922   0.10382   0.10949   0.11045
 Alpha virt. eigenvalues --    0.11328   0.11728   0.11970   0.12339   0.12421
 Alpha virt. eigenvalues --    0.12710   0.13106   0.13634   0.13850   0.14425
 Alpha virt. eigenvalues --    0.14670   0.14761   0.15261   0.15383   0.15762
 Alpha virt. eigenvalues --    0.15928   0.16091   0.16577   0.16727   0.16997
 Alpha virt. eigenvalues --    0.17322   0.17384   0.17798   0.17908   0.18134
 Alpha virt. eigenvalues --    0.18734   0.18949   0.19257   0.19389   0.19761
 Alpha virt. eigenvalues --    0.19956   0.20290   0.20459   0.20710   0.20915
 Alpha virt. eigenvalues --    0.20947   0.21101   0.21633   0.22165   0.22299
 Alpha virt. eigenvalues --    0.22521   0.22806   0.23297   0.23550   0.23908
 Alpha virt. eigenvalues --    0.24143   0.24472   0.24711   0.24792   0.25183
 Alpha virt. eigenvalues --    0.25563   0.25984   0.26216   0.26304   0.26571
 Alpha virt. eigenvalues --    0.27098   0.27248   0.27464   0.27737   0.28206
 Alpha virt. eigenvalues --    0.28342   0.28642   0.29054   0.29322   0.30221
 Alpha virt. eigenvalues --    0.30504   0.30575   0.30770   0.31003   0.31756
 Alpha virt. eigenvalues --    0.32139   0.32885   0.33504   0.33747   0.33857
 Alpha virt. eigenvalues --    0.34425   0.34787   0.35641   0.35771   0.36663
 Alpha virt. eigenvalues --    0.36962   0.37646   0.38138   0.39043   0.39543
 Alpha virt. eigenvalues --    0.40537   0.41080   0.43139   0.43298   0.43990
 Alpha virt. eigenvalues --    0.44549   0.46487   0.46966   0.48433   0.49481
 Alpha virt. eigenvalues --    0.52198   0.53191   0.55613   0.56337   0.59742
 Alpha virt. eigenvalues --    0.60446   0.61383   0.64351   0.65348   0.66206
 Alpha virt. eigenvalues --    0.66865   0.67335   0.67618   0.68268   0.68635
 Alpha virt. eigenvalues --    0.69586   0.69987   0.70262   0.70531   0.70870
 Alpha virt. eigenvalues --    0.71008   0.71825   0.72452   0.72619   0.73042
 Alpha virt. eigenvalues --    0.73263   0.73724   0.74227   0.74278   0.74551
 Alpha virt. eigenvalues --    0.75345   0.75881   0.76160   0.76756   0.77917
 Alpha virt. eigenvalues --    0.78058   0.78488   0.79240   0.80286   0.80936
 Alpha virt. eigenvalues --    0.81581   0.81973   0.83130   0.85129   0.85495
 Alpha virt. eigenvalues --    0.86007   0.86370   0.86947   0.87665   0.88013
 Alpha virt. eigenvalues --    0.88830   0.89139   0.89483   0.89922   0.90962
 Alpha virt. eigenvalues --    0.92469   0.93129   0.94212   0.94392   0.95961
 Alpha virt. eigenvalues --    0.96618   0.97488   0.99016   0.99428   0.99896
 Alpha virt. eigenvalues --    1.00699   1.01962   1.03050   1.03450   1.04860
 Alpha virt. eigenvalues --    1.06456   1.07645   1.08120   1.09424   1.10565
 Alpha virt. eigenvalues --    1.10835   1.12972   1.13340   1.13669   1.14483
 Alpha virt. eigenvalues --    1.14649   1.15690   1.16216   1.17611   1.17962
 Alpha virt. eigenvalues --    1.19723   1.20379   1.21808   1.21922   1.23152
 Alpha virt. eigenvalues --    1.23288   1.23789   1.25093   1.25409   1.25784
 Alpha virt. eigenvalues --    1.26495   1.28153   1.28616   1.29777   1.30002
 Alpha virt. eigenvalues --    1.31176   1.31297   1.31364   1.32736   1.33049
 Alpha virt. eigenvalues --    1.33263   1.34184   1.35429   1.36034   1.37036
 Alpha virt. eigenvalues --    1.37176   1.37528   1.37952   1.38365   1.39217
 Alpha virt. eigenvalues --    1.39987   1.40146   1.41310   1.41624   1.42019
 Alpha virt. eigenvalues --    1.42645   1.43722   1.45140   1.46105   1.47448
 Alpha virt. eigenvalues --    1.48166   1.49457   1.53037   1.55157   1.57609
 Alpha virt. eigenvalues --    1.60022   1.62040   1.65481   1.67237   1.69405
 Alpha virt. eigenvalues --    1.70714   1.73100   1.74228   1.75236   1.75646
 Alpha virt. eigenvalues --    1.76908   1.77223   1.78926   1.79594   1.81298
 Alpha virt. eigenvalues --    1.81544   1.83179   1.83928   1.84158   1.84550
 Alpha virt. eigenvalues --    1.84695   1.85461   1.86564   1.86848   1.87593
 Alpha virt. eigenvalues --    1.88057   1.88528   1.89191   1.91327   1.91615
 Alpha virt. eigenvalues --    1.92214   1.93356   1.93928   1.94430   1.95832
 Alpha virt. eigenvalues --    1.96335   1.96630   1.98194   1.98678   1.99406
 Alpha virt. eigenvalues --    2.01568   2.01750   2.02807   2.03223   2.03861
 Alpha virt. eigenvalues --    2.04243   2.05175   2.05255   2.06342   2.06636
 Alpha virt. eigenvalues --    2.07538   2.10372   2.10923   2.11312   2.12808
 Alpha virt. eigenvalues --    2.15683   2.17448   2.20645   2.21577   2.22825
 Alpha virt. eigenvalues --    2.23593   2.25270   2.26533   2.26965   2.27285
 Alpha virt. eigenvalues --    2.27699   2.28709   2.30084   2.33019   2.33552
 Alpha virt. eigenvalues --    2.34950   2.35484   2.36065   2.36222   2.37525
 Alpha virt. eigenvalues --    2.38741   2.38945   2.40548   2.41174   2.42539
 Alpha virt. eigenvalues --    2.42848   2.43329   2.44691   2.45220   2.45535
 Alpha virt. eigenvalues --    2.47254   2.48565   2.49317   2.50044   2.50396
 Alpha virt. eigenvalues --    2.51227   2.52285   2.52344   2.53794   2.54345
 Alpha virt. eigenvalues --    2.54736   2.56900   2.57399   2.57783   2.58885
 Alpha virt. eigenvalues --    2.59087   2.60604   2.60722   2.61103   2.61556
 Alpha virt. eigenvalues --    2.63039   2.64678   2.65149   2.67001   2.68019
 Alpha virt. eigenvalues --    2.69389   2.69845   2.71520   2.72488   2.74122
 Alpha virt. eigenvalues --    2.75937   2.77954   2.78986   2.80272   2.82007
 Alpha virt. eigenvalues --    2.84339   2.85100   2.87763   2.89733   2.93769
 Alpha virt. eigenvalues --    2.95266   3.00170   3.01362   3.04714   3.05726
 Alpha virt. eigenvalues --    3.05866   3.08487   3.14462   3.15844   3.16844
 Alpha virt. eigenvalues --    3.17516   3.22410   3.23458   3.23605   3.24255
 Alpha virt. eigenvalues --    3.25535   3.25937   3.28930   3.31770   3.33339
 Alpha virt. eigenvalues --    3.38097   3.40353   3.41564   3.41694   3.44089
 Alpha virt. eigenvalues --    3.45019   3.45859   3.46909   3.47415   3.56798
 Alpha virt. eigenvalues --    3.76428   3.81598   4.23341   4.25310   4.25607
 Alpha virt. eigenvalues --    4.26922   4.29126   4.31558   4.34268   4.34670
 Alpha virt. eigenvalues --    4.37790   4.39436   4.41844   4.43664   4.46401
 Alpha virt. eigenvalues --    4.46897   4.47865   4.50947   4.55522   4.56296
 Alpha virt. eigenvalues --    4.64581   4.67293   4.77882   4.81965   4.88298
 Alpha virt. eigenvalues --    4.96725
          Condensed to atoms (all electrons):
              1          2          3          4          5          6
     1  C    5.781677   0.289303  -0.122299  -0.695429   0.584750   0.231519
     2  C    0.289303   7.199981  -1.023560   0.622314  -0.021313  -0.150715
     3  C   -0.122299  -1.023560  10.439272  -2.472361  -2.313391   0.515496
     4  C   -0.695429   0.622314  -2.472361  16.394913  -3.933256  -0.721653
     5  C    0.584750  -0.021313  -2.313391  -3.933256  18.188457  -2.696731
     6  C    0.231519  -0.150715   0.515496  -0.721653  -2.696731   9.504915
     7  H    0.220930   0.048964   0.015448  -0.007618   0.015934   0.023738
     8  H    0.047002   0.236683   0.025474   0.033417  -0.017572   0.007724
     9  H   -0.009854  -0.056055   0.155345   0.103247   0.009495  -0.008134
    10  C    0.010526  -0.608541   2.191416   0.024496  -3.191272  -1.691202
    11  O   -0.011122   0.034151  -0.030209   0.303962  -0.267904  -0.188500
    12  H    0.019275  -0.014436  -0.028516   0.049949   0.196328   0.108749
    13  C   -0.160030  -0.541932  -1.813713  -1.192846   2.607198  -0.125545
    14  C    0.016122   0.106438   0.174775  -1.446336  -0.327772   1.199721
    15  O    0.002701  -0.006121   0.006563  -0.099344   0.094196  -0.003349
    16  O   -0.007652  -0.014407   0.025342  -0.370277  -0.107842   0.017482
    17  C   -0.019203   0.068865  -0.645567   0.842100   0.273198   0.012714
    18  C   -0.002720  -0.213606   1.014500  -2.118684  -1.559211  -0.164432
    19  C   -0.005357   0.004861  -0.025557   0.048086  -0.142383  -0.034453
    20  C    0.000765  -0.026705  -0.067777  -0.140932   0.033487   0.011511
    21  C   -0.001024  -0.027307  -0.056006  -0.102777   0.226317   0.099360
    22  H   -0.000091   0.000337  -0.001951  -0.006636   0.009811  -0.000088
    23  C   -0.004832   0.011291  -0.079644   0.181363  -0.090759  -0.007043
    24  H   -0.000083  -0.001474  -0.009959  -0.021953   0.003036   0.000828
    25  H    0.000036   0.000146   0.004194   0.016508   0.000318   0.000114
    26  H    0.000001  -0.000019  -0.000226   0.001863  -0.000209  -0.000027
    27  C    0.003809   0.041741   0.096168   0.077551  -0.196936  -0.141325
    28  H   -0.000036   0.000562  -0.008911   0.034227   0.011774   0.003160
    29  H    0.000002   0.000000   0.000359   0.000343   0.000319   0.000027
    30  H    0.000001   0.000008   0.000128   0.001448   0.000104   0.000004
    31  C    0.000826   0.002304   0.017890   0.042014  -0.017356  -0.028364
    32  C   -0.003955  -0.009655  -0.054162  -0.060273   0.041099   0.071896
    33  C    0.002351  -0.000983  -0.002396  -0.017204   0.021157  -0.010970
    34  C    0.000077  -0.000418  -0.000829  -0.003763   0.001292   0.001536
    35  C    0.000077   0.000442   0.000598   0.006507   0.001756   0.000424
    36  H    0.000000   0.000000  -0.000017  -0.000118   0.000006   0.000019
    37  H    0.000087  -0.000187  -0.000099  -0.000368   0.001877   0.000036
    38  H    0.000001  -0.000003   0.000016  -0.000026  -0.000025  -0.000004
    39  H    0.000000   0.000000   0.000000   0.000002  -0.000001   0.000000
    40  H    0.000000   0.000000   0.000000  -0.000005   0.000006   0.000001
              7          8          9         10         11         12
     1  C    0.220930   0.047002  -0.009854   0.010526  -0.011122   0.019275
     2  C    0.048964   0.236683  -0.056055  -0.608541   0.034151  -0.014436
     3  C    0.015448   0.025474   0.155345   2.191416  -0.030209  -0.028516
     4  C   -0.007618   0.033417   0.103247   0.024496   0.303962   0.049949
     5  C    0.015934  -0.017572   0.009495  -3.191272  -0.267904   0.196328
     6  C    0.023738   0.007724  -0.008134  -1.691202  -0.188500   0.108749
     7  H    0.505357  -0.004332  -0.000131   0.001752  -0.000158  -0.003997
     8  H   -0.004332   0.511632  -0.004243  -0.008989   0.000111  -0.000119
     9  H   -0.000131  -0.004243   0.510069   0.048656  -0.000500   0.000011
    10  C    0.001752  -0.008989   0.048656  14.383571  -0.035628   0.020143
    11  O   -0.000158   0.000111  -0.000500  -0.035628   8.905391  -0.013791
    12  H   -0.003997  -0.000119   0.000011   0.020143  -0.013791   0.501526
    13  C    0.000229  -0.000579   0.069966  -5.593555  -0.384349   0.007525
    14  C    0.002001  -0.000146   0.001290  -1.064640   0.096331  -0.025164
    15  O   -0.000001   0.000000  -0.000003  -0.014643  -0.106062   0.000081
    16  O    0.000006   0.000172  -0.000304   0.408159  -0.011763   0.000013
    17  C    0.000020   0.000006   0.003353  -0.561230   0.083804  -0.000238
    18  C    0.000214   0.000091  -0.008218   1.904021   0.053542  -0.001610
    19  C   -0.000001  -0.000008   0.000426  -0.353285  -0.002185   0.000007
    20  C    0.000001  -0.000004   0.000260  -0.310248  -0.002833  -0.000003
    21  C    0.000001  -0.000007  -0.000011  -0.831168  -0.003587  -0.000031
    22  H    0.000000   0.000000   0.000000  -0.053282   0.000969   0.000000
    23  C    0.000000   0.000000   0.000435   0.197442   0.007794  -0.000007
    24  H    0.000000   0.000000  -0.000001  -0.109434  -0.000034   0.000000
    25  H    0.000000   0.000000   0.000000   0.128935   0.000029   0.000000
    26  H    0.000000   0.000000   0.000000   0.012779  -0.000001   0.000000
    27  C   -0.000006  -0.000002  -0.000089   0.949995  -0.003853   0.000060
    28  H    0.000000   0.000000  -0.000001  -0.038896  -0.000189   0.000000
    29  H    0.000000   0.000000   0.000000   0.006200  -0.000003   0.000000
    30  H    0.000000   0.000000   0.000000   0.007374   0.000001   0.000000
    31  C    0.000000   0.000000  -0.000041   0.329663   0.002768   0.000003
    32  C    0.000002   0.000002   0.000196  -0.496583  -0.000900  -0.000026
    33  C    0.000000   0.000001   0.000024   0.039869   0.000108   0.000003
    34  C    0.000000   0.000000   0.000000  -0.009701   0.000015  -0.000001
    35  C    0.000000   0.000000  -0.000001   0.025404   0.000390   0.000001
    36  H    0.000000   0.000000   0.000000  -0.001643  -0.000001   0.000000
    37  H    0.000000   0.000000   0.000000  -0.001271  -0.000012   0.000000
    38  H    0.000000   0.000000   0.000000   0.000034   0.000000   0.000000
    39  H    0.000000   0.000000   0.000000   0.000003   0.000000   0.000000
    40  H    0.000000   0.000000   0.000000  -0.000030   0.000000   0.000000
             13         14         15         16         17         18
     1  C   -0.160030   0.016122   0.002701  -0.007652  -0.019203  -0.002720
     2  C   -0.541932   0.106438  -0.006121  -0.014407   0.068865  -0.213606
     3  C   -1.813713   0.174775   0.006563   0.025342  -0.645567   1.014500
     4  C   -1.192846  -1.446336  -0.099344  -0.370277   0.842100  -2.118684
     5  C    2.607198  -0.327772   0.094196  -0.107842   0.273198  -1.559211
     6  C   -0.125545   1.199721  -0.003349   0.017482   0.012714  -0.164432
     7  H    0.000229   0.002001  -0.000001   0.000006   0.000020   0.000214
     8  H   -0.000579  -0.000146   0.000000   0.000172   0.000006   0.000091
     9  H    0.069966   0.001290  -0.000003  -0.000304   0.003353  -0.008218
    10  C   -5.593555  -1.064640  -0.014643   0.408159  -0.561230   1.904021
    11  O   -0.384349   0.096331  -0.106062  -0.011763   0.083804   0.053542
    12  H    0.007525  -0.025164   0.000081   0.000013  -0.000238  -0.001610
    13  C   20.990538  -3.370508   0.056708   0.077822  -0.478312  -3.715596
    14  C   -3.370508   9.884734   0.322687  -0.104395  -0.343760   1.274470
    15  O    0.056708   0.322687   8.225880   0.001398   0.022137  -0.076642
    16  O    0.077822  -0.104395   0.001398   8.510564  -0.112521   0.168800
    17  C   -0.478312  -0.343760   0.022137  -0.112521  19.477900  -9.373562
    18  C   -3.715596   1.274470  -0.076642   0.168800  -9.373562  22.264443
    19  C    0.048969  -0.592051   0.006307   0.099358  -5.302248  -0.171373
    20  C    0.061453   0.018376   0.010078  -0.062521   0.408921  -1.358782
    21  C    1.036514   0.194766  -0.002385  -0.000917   2.268790  -1.777294
    22  H    0.105676  -0.005884   0.010536   0.000970   0.099518   0.122359
    23  C   -0.676413  -0.425001   0.004421   0.001530   0.599519  -2.454836
    24  H    0.093702  -0.005489   0.000087  -0.002741  -0.133625  -0.087610
    25  H   -0.040310   0.019381  -0.000159  -0.007660  -0.034566   0.079425
    26  H   -0.031029  -0.004061   0.000002   0.001892  -0.155738  -0.024212
    27  C   -1.186898   0.060310   0.002770  -0.008501  -1.496200   2.194321
    28  H    0.022550  -0.020362  -0.000330   0.000143   0.045289  -0.074256
    29  H    0.011102   0.000404  -0.000004  -0.000172   0.219117   0.099485
    30  H    0.017295  -0.000704   0.000001  -0.000084   0.075632   0.002098
    31  C   -0.370468  -0.011704  -0.006506  -0.002575  -0.570433   0.468131
    32  C    0.643881   0.021584   0.001307   0.000861   0.496650  -0.469025
    33  C   -0.034188   0.022876  -0.000783  -0.001558  -0.031234   0.083677
    34  C    0.013460   0.005378  -0.000139  -0.000001  -0.019333   0.008296
    35  C   -0.007284  -0.020219   0.001148  -0.000009   0.176211  -0.142174
    36  H   -0.003618   0.002901  -0.000024   0.000000   0.001417  -0.001666
    37  H    0.000643  -0.000315   0.000002  -0.000018   0.000775   0.000238
    38  H   -0.000048   0.000038   0.000000   0.000000  -0.000026   0.000067
    39  H    0.000009  -0.000005   0.000000   0.000000   0.000009  -0.000014
    40  H    0.000032   0.000008   0.000000   0.000000   0.000033  -0.000046
             19         20         21         22         23         24
     1  C   -0.005357   0.000765  -0.001024  -0.000091  -0.004832  -0.000083
     2  C    0.004861  -0.026705  -0.027307   0.000337   0.011291  -0.001474
     3  C   -0.025557  -0.067777  -0.056006  -0.001951  -0.079644  -0.009959
     4  C    0.048086  -0.140932  -0.102777  -0.006636   0.181363  -0.021953
     5  C   -0.142383   0.033487   0.226317   0.009811  -0.090759   0.003036
     6  C   -0.034453   0.011511   0.099360  -0.000088  -0.007043   0.000828
     7  H   -0.000001   0.000001   0.000001   0.000000   0.000000   0.000000
     8  H   -0.000008  -0.000004  -0.000007   0.000000   0.000000   0.000000
     9  H    0.000426   0.000260  -0.000011   0.000000   0.000435  -0.000001
    10  C   -0.353285  -0.310248  -0.831168  -0.053282   0.197442  -0.109434
    11  O   -0.002185  -0.002833  -0.003587   0.000969   0.007794  -0.000034
    12  H    0.000007  -0.000003  -0.000031   0.000000  -0.000007   0.000000
    13  C    0.048969   0.061453   1.036514   0.105676  -0.676413   0.093702
    14  C   -0.592051   0.018376   0.194766  -0.005884  -0.425001  -0.005489
    15  O    0.006307   0.010078  -0.002385   0.010536   0.004421   0.000087
    16  O    0.099358  -0.062521  -0.000917   0.000970   0.001530  -0.002741
    17  C   -5.302248   0.408921   2.268790   0.099518   0.599519  -0.133625
    18  C   -0.171373  -1.358782  -1.777294   0.122359  -2.454836  -0.087610
    19  C   15.983407   0.027839  -0.713749  -0.010504  -1.639461   0.100962
    20  C    0.027839   6.532096   0.210333   0.007058   0.087321   0.516242
    21  C   -0.713749   0.210333  21.950214   0.074364  -1.741364  -0.012519
    22  H   -0.010504   0.007058   0.074364   0.489234  -0.035882  -0.000151
    23  C   -1.639461   0.087321  -1.741364  -0.035882  11.824599   0.018486
    24  H    0.100962   0.516242  -0.012519  -0.000151   0.018486   0.499504
    25  H   -0.150617   0.335764   0.005347   0.000443  -0.011127  -0.026925
    26  H    0.050251   0.486141   0.008829  -0.000100   0.006478  -0.022743
    27  C   -0.870942  -0.261446 -15.226641  -0.016622   0.095636  -0.004244
    28  H   -0.147990   0.007747   0.128995  -0.000146   0.038366   0.000014
    29  H   -0.026629  -0.073045   0.019791  -0.000113   0.011540   0.000096
    30  H   -0.072697   0.009449   0.094287   0.000124   0.182174  -0.000003
    31  C    0.184930  -0.046380  -4.854975  -0.006702  -0.231065  -0.000247
    32  C   -0.192960   0.032096   7.965445   0.004983   0.659654   0.000016
    33  C   -0.096528  -0.004890  -3.056669   0.000482  -0.456862  -0.000023
    34  C    0.024948  -0.001535  -0.162405  -0.000143   0.060664   0.000000
    35  C   -0.270203   0.014412   0.375170   0.001099  -0.117592  -0.000009
    36  H    0.031574   0.000251   0.042820  -0.000020  -0.024001   0.000000
    37  H   -0.003053  -0.000082  -0.018685   0.000000  -0.000763   0.000000
    38  H    0.000294   0.000000   0.007549   0.000000  -0.000776   0.000000
    39  H   -0.000047   0.000000   0.009814   0.000000  -0.000224   0.000000
    40  H    0.000273  -0.000001   0.009457   0.000000  -0.000324   0.000000
             25         26         27         28         29         30
     1  C    0.000036   0.000001   0.003809  -0.000036   0.000002   0.000001
     2  C    0.000146  -0.000019   0.041741   0.000562   0.000000   0.000008
     3  C    0.004194  -0.000226   0.096168  -0.008911   0.000359   0.000128
     4  C    0.016508   0.001863   0.077551   0.034227   0.000343   0.001448
     5  C    0.000318  -0.000209  -0.196936   0.011774   0.000319   0.000104
     6  C    0.000114  -0.000027  -0.141325   0.003160   0.000027   0.000004
     7  H    0.000000   0.000000  -0.000006   0.000000   0.000000   0.000000
     8  H    0.000000   0.000000  -0.000002   0.000000   0.000000   0.000000
     9  H    0.000000   0.000000  -0.000089  -0.000001   0.000000   0.000000
    10  C    0.128935   0.012779   0.949995  -0.038896   0.006200   0.007374
    11  O    0.000029  -0.000001  -0.003853  -0.000189  -0.000003   0.000001
    12  H    0.000000   0.000000   0.000060   0.000000   0.000000   0.000000
    13  C   -0.040310  -0.031029  -1.186898   0.022550   0.011102   0.017295
    14  C    0.019381  -0.004061   0.060310  -0.020362   0.000404  -0.000704
    15  O   -0.000159   0.000002   0.002770  -0.000330  -0.000004   0.000001
    16  O   -0.007660   0.001892  -0.008501   0.000143  -0.000172  -0.000084
    17  C   -0.034566  -0.155738  -1.496200   0.045289   0.219117   0.075632
    18  C    0.079425  -0.024212   2.194321  -0.074256   0.099485   0.002098
    19  C   -0.150617   0.050251  -0.870942  -0.147990  -0.026629  -0.072697
    20  C    0.335764   0.486141  -0.261446   0.007747  -0.073045   0.009449
    21  C    0.005347   0.008829 -15.226641   0.128995   0.019791   0.094287
    22  H    0.000443  -0.000100  -0.016622  -0.000146  -0.000113   0.000124
    23  C   -0.011127   0.006478   0.095636   0.038366   0.011540   0.182174
    24  H   -0.026925  -0.022743  -0.004244   0.000014   0.000096  -0.000003
    25  H    0.543316  -0.024535  -0.000137  -0.000003   0.000240   0.000008
    26  H   -0.024535   0.526208   0.000719   0.000001   0.002020   0.000008
    27  C   -0.000137   0.000719  26.230649   0.215155   0.036467  -0.061928
    28  H   -0.000003   0.000001   0.215155   0.582674   0.000161   0.004179
    29  H    0.000240   0.002020   0.036467   0.000161   0.541566  -0.002385
    30  H    0.000008   0.000008  -0.061928   0.004179  -0.002385   0.543355
    31  C    0.000290   0.000349   3.951758  -0.034756  -0.013019   0.032162
    32  C   -0.000037  -0.000085 -12.290949   0.027146   0.011735  -0.060356
    33  C    0.000008   0.000004   4.469941   0.043292   0.000163   0.010686
    34  C   -0.000001  -0.000001  -0.601695  -0.001988   0.000130  -0.005594
    35  C    0.000014   0.000028   0.065503   0.029288  -0.001318   0.065802
    36  H    0.000000   0.000000   0.114004   0.000127   0.000001   0.000417
    37  H    0.000000   0.000000   0.144741   0.001831   0.000000   0.000011
    38  H    0.000000   0.000000  -0.015692  -0.000003   0.000000   0.000000
    39  H    0.000000   0.000000   0.007172   0.000000   0.000000   0.000000
    40  H    0.000000   0.000000  -0.005496   0.000002   0.000000   0.000002
             31         32         33         34         35         36
     1  C    0.000826  -0.003955   0.002351   0.000077   0.000077   0.000000
     2  C    0.002304  -0.009655  -0.000983  -0.000418   0.000442   0.000000
     3  C    0.017890  -0.054162  -0.002396  -0.000829   0.000598  -0.000017
     4  C    0.042014  -0.060273  -0.017204  -0.003763   0.006507  -0.000118
     5  C   -0.017356   0.041099   0.021157   0.001292   0.001756   0.000006
     6  C   -0.028364   0.071896  -0.010970   0.001536   0.000424   0.000019
     7  H    0.000000   0.000002   0.000000   0.000000   0.000000   0.000000
     8  H    0.000000   0.000002   0.000001   0.000000   0.000000   0.000000
     9  H   -0.000041   0.000196   0.000024   0.000000  -0.000001   0.000000
    10  C    0.329663  -0.496583   0.039869  -0.009701   0.025404  -0.001643
    11  O    0.002768  -0.000900   0.000108   0.000015   0.000390  -0.000001
    12  H    0.000003  -0.000026   0.000003  -0.000001   0.000001   0.000000
    13  C   -0.370468   0.643881  -0.034188   0.013460  -0.007284  -0.003618
    14  C   -0.011704   0.021584   0.022876   0.005378  -0.020219   0.002901
    15  O   -0.006506   0.001307  -0.000783  -0.000139   0.001148  -0.000024
    16  O   -0.002575   0.000861  -0.001558  -0.000001  -0.000009   0.000000
    17  C   -0.570433   0.496650  -0.031234  -0.019333   0.176211   0.001417
    18  C    0.468131  -0.469025   0.083677   0.008296  -0.142174  -0.001666
    19  C    0.184930  -0.192960  -0.096528   0.024948  -0.270203   0.031574
    20  C   -0.046380   0.032096  -0.004890  -0.001535   0.014412   0.000251
    21  C   -4.854975   7.965445  -3.056669  -0.162405   0.375170   0.042820
    22  H   -0.006702   0.004983   0.000482  -0.000143   0.001099  -0.000020
    23  C   -0.231065   0.659654  -0.456862   0.060664  -0.117592  -0.024001
    24  H   -0.000247   0.000016  -0.000023   0.000000  -0.000009   0.000000
    25  H    0.000290  -0.000037   0.000008  -0.000001   0.000014   0.000000
    26  H    0.000349  -0.000085   0.000004  -0.000001   0.000028   0.000000
    27  C    3.951758 -12.290949   4.469941  -0.601695   0.065503   0.114004
    28  H   -0.034756   0.027146   0.043292  -0.001988   0.029288   0.000127
    29  H   -0.013019   0.011735   0.000163   0.000130  -0.001318   0.000001
    30  H    0.032162  -0.060356   0.010686  -0.005594   0.065802   0.000417
    31  C   16.775811  -9.777712   2.514368  -0.037982  -2.336367   0.125088
    32  C   -9.777712  25.793229  -7.418611   0.893562  -0.144255   0.071998
    33  C    2.514368  -7.418611   9.598705  -0.181582   0.363301  -0.015055
    34  C   -0.037982   0.893562  -0.181582   5.858931  -0.020182  -0.002101
    35  C   -2.336367  -0.144255   0.363301  -0.020182   7.877893  -0.038484
    36  H    0.125088   0.071998  -0.015055  -0.002101  -0.038484   0.551914
    37  H    0.032847   0.074504   0.078146  -0.011519   0.007909  -0.000128
    38  H    0.010592   0.073479   0.178314   0.080528  -0.017192   0.000015
    39  H   -0.004992  -0.002092   0.052397   0.200393   0.053883  -0.000140
    40  H    0.072238   0.011600  -0.016440   0.069067   0.176459  -0.005067
             37         38         39         40
     1  C    0.000087   0.000001   0.000000   0.000000
     2  C   -0.000187  -0.000003   0.000000   0.000000
     3  C   -0.000099   0.000016   0.000000   0.000000
     4  C   -0.000368  -0.000026   0.000002  -0.000005
     5  C    0.001877  -0.000025  -0.000001   0.000006
     6  C    0.000036  -0.000004   0.000000   0.000001
     7  H    0.000000   0.000000   0.000000   0.000000
     8  H    0.000000   0.000000   0.000000   0.000000
     9  H    0.000000   0.000000   0.000000   0.000000
[...]
 ,0.00008441,-0.00000575,0.00000978,0.00004467,0.00006804,-0.00066633,-
 0.00079578,0.00014033,0.04424283,-0.22383697,-0.13397644,-0.00113697,0
 .00220361,-0.00169594,-0.00014753,-0.00003254,0.00057947,-0.00506032,-
 0.00035520,-0.00174339,0.00710119,-0.01367364,-0.01394421,-0.04523921,
 0.23660629,0.00000158,-0.00000282,0.00000193,0.00000250,-0.00000108,0.
 00000113,-0.00000287,-0.00000302,0.00000473,0.00000884,-0.00000465,-0.
 00000609,-0.00002262,-0.00000592,0.00000884,0.00000926,0.00000178,-0.0
 0000268,0.00000104,-0.00000058,-0.00000010,0.00000176,0.00000012,-0.00
 000064,-0.00000108,0.00000029,-0.00000059,-0.00007243,-0.00005210,0.00
 008197,0.00004666,-0.00001417,-0.00000782,-0.00000022,-0.00000053,0.00
 000026,0.00016156,-0.00005610,0.00001664,-0.00001705,0.00008561,-0.000
 04649,-0.00001294,-0.00002339,0.00002408,0.00000744,0.00004766,-0.0000
 5320,0.00012101,-0.00025565,0.00008823,-0.00015806,0.00018878,-0.00002
 695,-0.00055035,0.00006053,-0.00000857,-0.00001871,0.00001149,-0.00005
 253,-0.00192295,0.00107071,-0.00176498,-0.00001278,-0.00001913,-0.0000
 1914,0.00066198,-0.00022848,-0.00002838,0.00001468,0.00001001,-0.00000
 365,-0.00000913,-0.00000632,0.00000341,0.00000312,0.00000845,0.0000059
 0,0.00101366,-0.01278667,-0.00484549,0.00000141,0.00001524,0.00001982,
 -0.00000420,-0.00000304,0.00000186,0.00017285,0.00066092,0.00052182,0.
 04268971,-0.13504844,-0.13859139,0.00461513,-0.00084902,0.00329222,-0.
 00021461,0.00061915,-0.00051651,0.00204540,-0.00203328,0.00529163,0.00
 195662,-0.00038434,0.00304989,-0.04868957,0.14770167,0.13692669,0.0000
 0331,-0.00000310,0.00000144,0.00000437,-0.00000314,0.00000194,-0.00000
 572,-0.00000667,0.00000729,0.00001928,-0.00000432,-0.00000806,-0.00002
 657,-0.00000097,0.00000830,0.00001100,0.00000040,-0.00000454,0.0000017
 9,-0.00000046,0.00000013,0.00000275,0.00000038,-0.00000054,-0.00000203
 ,0.00000085,-0.00000022,-0.00010739,-0.00006781,0.00010637,0.00006147,
 -0.00002651,-0.00000323,0.00000064,-0.00000073,0.00000094,0.00022022,-
 0.00009989,-0.00000325,-0.00000545,0.00014914,-0.00008339,-0.00001981,
 -0.00005857,0.00005563,0.00002126,0.00005691,-0.00006986,0.00020179,-0
 .00013742,0.00007570,-0.00023754,0.00021002,-0.00002635,-0.00026202,-0
 .00015978,0.00009107,0.00001535,-0.00001586,-0.00005587,0.00015782,-0.
 00108862,-0.00247853,-0.00001743,0.00000116,-0.00002981,0.00033164,0.0
 0056004,0.00010787,0.00002290,0.00001797,-0.00000386,0.00000500,0.0000
 0186,0.00000263,-0.00000235,0.00000624,0.00000534,-0.00346791,-0.00212
 118,0.00241264,0.00006952,0.00041293,0.00018595,-0.00001097,0.00002098
 ,0.00002898,0.00001918,-0.00005260,-0.00001262,0.00225527,0.00018266,0
 .00206409,-0.26305223,0.00797648,0.12623511,-0.01208135,0.00329179,0.0
 1058014,0.00060554,-0.00458472,0.00105358,0.00014047,0.00004461,-0.000
 53650,-0.00015500,-0.00020203,0.00023565,0.27631990,0.00000451,-0.0000
 0186,-0.00000143,0.00000589,-0.00000396,0.00000464,-0.00000767,-0.0000
 0716,0.00000418,0.00002069,-0.00001284,-0.00000744,-0.00000594,0.00000
 878,0.00000022,0.00000563,-0.00000043,-0.00000302,0.00000147,-0.000000
 12,0.00000021,0.00000173,0.00000024,-0.00000004,-0.00000213,0.00000043
 ,0.00000008,-0.00009791,-0.00002060,0.00006240,0.00002743,-0.00003483,
 0.00000199,0.00000174,-0.00000041,0.00000245,0.00016939,-0.00006533,0.
 00003308,0.00001610,0.00016761,-0.00010261,-0.00005144,-0.00008132,0.0
 0004607,0.00002745,0.00002064,-0.00002830,0.00004257,-0.00005792,0.000
 04690,-0.00014702,0.00008087,-0.00004405,-0.00007541,0.00000074,-0.000
 04918,0.00001415,-0.00001159,-0.00002414,0.00250343,0.00013410,0.00100
 611,-0.00000675,0.00001049,-0.00001907,-0.00026554,0.00009397,0.000059
 64,0.00000752,0.00000941,-0.00000220,0.00000605,0.00000149,0.00000466,
 -0.00000396,0.00000427,0.00000190,0.02065295,0.00243935,-0.01144252,-0
 .00056690,-0.00056871,-0.00020695,0.00001694,0.00003202,0.00001754,-0.
 00000701,0.00014077,-0.00006593,-0.00070629,-0.00268618,-0.00446237,0.
 00751316,-0.05350544,-0.01339855,-0.02070586,0.00523729,0.01190818,-0.
 00407421,-0.00198010,-0.00284223,-0.00016231,-0.00106413,0.00002008,0.
 00104098,0.00004802,-0.00075314,-0.00580193,0.05153271,-0.00000405,-0.
 00000096,0.00000275,0.00000205,0.00000356,-0.00000225,-0.00000030,-0.0
 0000337,0.00000114,0.00000694,0.00000825,-0.00000461,-0.00003891,-0.00
 001576,0.00001534,0.00000916,0.00000181,-0.00000233,0.00000085,-0.0000
 0048,-0.00000026,0.00000107,0.00000017,-0.00000075,0.00000035,0.000000
 33,-0.00000069,-0.00000055,-0.00000398,-0.00000388,0.00006518,0.000012
 92,-0.00001105,-0.00000213,-0.00000040,-0.00000206,-0.00009781,0.00005
 642,-0.00003967,-0.00014855,-0.00013121,0.00006271,0.00010487,0.000080
 55,-0.00002315,0.00000669,0.00000482,-0.00000212,-0.00006458,0.0000493
 6,-0.00000513,0.00007153,-0.00005510,0.00005426,0.00011926,-0.00004656
 ,0.00011154,-0.00000491,0.00001121,-0.00000325,-0.00038981,0.00277172,
 -0.00204245,0.00001716,-0.00001310,-0.00001660,-0.00022213,-0.00000773
 ,0.00023770,0.00000072,-0.00000056,0.00000185,-0.00000204,0.00000269,0
 .00000082,0.00000317,0.00000285,0.00000212,0.01479705,0.00045609,-0.00
 451156,-0.00048505,-0.00057877,0.00010186,-0.00001334,-0.00001410,-0.0
 0004486,-0.00001110,0.00007367,0.00009732,0.00181211,-0.00489962,0.002
 44874,0.12610004,-0.01377715,-0.11146814,-0.00275536,-0.00096458,0.004
 83529,0.00134945,-0.00268863,0.00511094,-0.00063699,-0.00007537,-0.000
 64803,0.00086474,-0.00003959,-0.00008979,-0.13851154,0.01770373,0.1088
 4436,-0.00000180,0.00000023,0.00000053,-0.00000013,0.00000168,0.000000
 22,0.00000025,-0.00000010,-0.00000043,-0.00000204,0.00000018,0.0000003
 1,-0.00000415,-0.00000402,0.00000007,0.00000098,0.00000097,0.00000130,
 -0.00000009,-0.00000031,-0.00000024,-0.00000012,-0.00000006,-0.0000004
 0,0.00000038,-0.00000036,-0.00000039,0.00001504,0.00000842,-0.00001575
 ,0.00000059,0.00000919,-0.00000083,-0.00000085,-0.00000026,-0.00000110
 ,-0.00003886,0.00002165,-0.00000156,-0.00001153,-0.00004080,0.00002098
 ,0.00001547,0.00002226,-0.00000936,-0.00000136,-0.00000407,0.00000978,
 -0.00002283,0.00001609,-0.00001097,0.00004005,-0.00002729,0.00000509,0
 .00008010,-0.00005345,-0.00000554,-0.00000616,0.00000418,0.00000209,0.
 00050909,-0.00069264,-0.00050486,0.00000467,-0.00000194,0.00000592,-0.
 00029985,-0.00017922,-0.00006859,-0.00000240,-0.00000234,0.00000099,-0
 .00000260,-0.00000121,0.00000013,0.00000012,0.00000043,-0.00000008,-0.
 00095124,-0.00417917,0.00220748,-0.00001336,0.00001619,0.00000780,-0.0
 0002063,-0.00002047,0.00000398,0.00000352,-0.00000282,0.00000295,-0.00
 115214,-0.00041748,-0.00005288,0.00809551,-0.01684353,-0.01180830,-0.0
 6701247,0.04653069,0.04153186,-0.00107755,0.02230954,0.01461300,-0.003
 02739,-0.00169652,0.00456143,-0.00008802,0.00028007,-0.00040895,-0.000
 02648,0.00140996,-0.00144833,0.06487111,-0.00000510,0.00000521,-0.0000
 0245,-0.00000669,0.00000520,-0.00000236,0.00000859,0.00000874,-0.00001
 118,-0.00003119,0.00000921,0.00001188,0.00004055,0.00000425,-0.0000130
 0,-0.00001853,-0.00000237,0.00000635,-0.00000266,0.00000076,-0.0000001
 7,-0.00000398,-0.00000051,0.00000070,0.00000317,-0.00000150,0.00000041
 ,0.00017389,0.00010019,-0.00016417,-0.00009571,0.00004903,0.00000960,-
 0.00000093,0.00000109,-0.00000212,-0.00034669,0.00014132,-0.00001486,0
 .00002226,-0.00024094,0.00012848,0.00004243,0.00008600,-0.00007246,-0.
 00003106,-0.00007952,0.00010677,-0.00024929,0.00020396,-0.00010444,0.0
 0033038,-0.00029358,0.00005520,0.00038771,0.00009190,-0.00001292,-0.00
 002429,0.00002494,0.00007090,0.00075514,-0.00019591,-0.00069626,0.0000
 3541,0.00000195,0.00004532,-0.00044986,-0.00058629,-0.00000893,-0.0000
 2790,-0.00002453,0.00000462,-0.00000996,-0.00000106,-0.00000438,0.0000
 0691,-0.00000878,-0.00000592,-0.00494821,-0.00009705,-0.00150736,-0.00
 002712,-0.00000549,0.00003732,-0.00001770,-0.00005597,-0.00005182,0.00
 003030,0.00000174,0.00003499,-0.00028028,-0.00005293,0.00057048,0.0073
 4689,-0.01372259,-0.01323649,0.04645504,-0.23445969,-0.13286233,-0.001
 91266,0.00267075,0.00057786,-0.00121352,0.00263945,-0.00180231,0.00028
 642,-0.00026493,0.00031454,0.00108666,0.00010952,0.00171545,-0.0481653
 2,0.24429466,-0.00000404,0.00000123,0.00000043,-0.00000405,0.00000413,
 -0.00000310,0.00000587,0.00000419,-0.00000589,-0.00001762,0.00000788,0
 .00000371,0.00000896,-0.00000410,0.00000143,-0.00000576,-0.00000079,0.
 00000293,-0.00000142,0.00000027,0.,-0.00000152,-0.00000008,0.00000034,
 0.00000191,-0.00000015,0.00000035,0.00008864,0.00003884,-0.00007008,-0
 .00003045,0.00002908,-0.00000096,-0.00000142,0.00000066,-0.00000175,-0
 .00017806,0.00007985,-0.00001637,-0.00001253,-0.00014676,0.00008428,0.
 00004125,0.00006372,-0.00004689,-0.00001855,-0.00003223,0.00004057,-0.
 00013307,0.00010257,-0.00006261,0.00016764,-0.00014893,0.00003532,0.00
 014973,0.00008990,-0.00002962,-0.00001291,0.00001405,0.00003771,0.0003
 3140,0.00016379,0.00016340,0.00001733,0.00000046,0.00002346,-0.0001257
 6,-0.00020720,-0.00019469,-0.00001327,-0.00001249,0.00000293,-0.000004
 47,-0.00000075,-0.00000280,0.00000337,-0.00000431,-0.00000257,0.001966
 29,-0.00200796,0.00531243,-0.00002984,-0.00000999,0.00001333,-0.000001
 85,-0.00000838,0.00000257,-0.00000918,0.00000524,0.00002106,-0.0000837
 0,0.00062504,-0.00042701,0.00148557,-0.00001861,0.00243090,0.04143967,
 -0.13288074,-0.13165152,0.00138593,-0.01243489,-0.00405553,0.00478010,
 -0.00162313,0.00368220,-0.00042201,0.00032830,-0.00071700,-0.00162791,
 0.00152717,-0.00243038,-0.04741615,0.14541631,0.13027223,-0.00000240,0
 .00000127,-0.00000037,-0.00000305,0.00000282,-0.00000216,0.00000480,0.
 00000325,-0.00000559,-0.00001545,0.00000493,0.00000373,0.00001507,0.00
 000050,-0.00000153,-0.00000685,-0.00000166,0.00000237,-0.00000132,0.00
 000043,0.00000010,-0.00000150,-0.00000007,0.00000054,0.00000169,-0.000
 00008,0.00000051,0.00007089,0.00003125,-0.00005159,-0.00003563,0.00001
 989,0.00000102,-0.00000048,0.00000079,-0.00000074,-0.00012567,0.000046
 54,-0.00001425,0.00001199,-0.00009327,0.00005661,0.00001556,0.00003462
 ,-0.00003330,-0.00001622,-0.00002570,0.00003031,-0.00007115,0.00005294
 ,-0.00002249,0.00011572,-0.00008617,0.00002687,0.00008336,0.00003505,-
 0.00004375,-0.00000985,0.00001190,0.00003150,0.00001619,0.00043644,-0.
 00040962,0.00001411,-0.00000047,0.00001845,0.00004246,-0.00019449,-0.0
 0004351,-0.00001025,-0.00000995,0.00000105,-0.00000441,0.00000066,-0.0
 0000206,0.00000377,-0.00000348,-0.00000170,-0.00061102,0.00069685,0.00
 017392,0.00000638,0.00003425,0.00003634,-0.00000483,-0.00002014,-0.000
 02322,-0.00000595,-0.00003673,0.00008281,0.00196066,0.00053997,0.00297
 864,-0.00220647,0.00013770,0.00519772,-0.01165595,-0.02114617,-0.00301
 000,-0.17329939,-0.14280373,-0.00421143,0.00780949,0.00657480,0.001443
 58,0.00022006,0.00035882,0.00004166,-0.00073816,-0.00102008,-0.0001921
 7,0.00030117,0.00097379,-0.00180018,0.17846197,-0.00000250,0.00000294,
 -0.00000201,-0.00000431,0.00000290,-0.00000193,0.00000558,0.00000510,-
 0.00000779,-0.00002010,0.00000579,0.00000712,0.00002898,0.00000456,-0.
 00000793,-0.00001260,-0.00000218,0.00000340,-0.00000174,0.00000081,0.0
 0000014,-0.00000248,-0.00000015,0.00000089,0.00000212,-0.00000041,0.00
 000080,0.00010668,0.00006062,-0.00009524,-0.00006342,0.00002680,0.0000
 0592,-0.00000011,0.00000108,-0.00000063,-0.00020696,0.00008458,-0.0000
 0623,0.00002219,-0.00013528,0.00007638,0.00002004,0.00004378,-0.000044
 44,-0.00002022,-0.00005027,0.00006056,-0.00017464,0.00013748,-0.000082
 35,0.00019363,-0.00018939,0.00002930,0.00021821,0.00013840,0.00003055,
 -0.00001126,0.00001274,0.00003555,0.00021380,-0.00001545,0.00044624,0.
 00001724,0.00000459,0.00002719,-0.00017692,-0.00029590,-0.00007803,-0.
 00001525,-0.00001249,0.00000420,-0.00000568,-0.00000205,-0.00000287,0.
 00000316,-0.00000659,-0.00000387,0.00080005,-0.00020492,-0.00002784,-0
 .00004076,-0.00003798,0.00000321,0.00000466,-0.00001453,-0.00001113,-0
 .00000099,0.00005784,-0.00004177,0.00092535,-0.00125311,-0.00499483,-0
 .00030338,0.00254624,-0.00240541,0.00297225,0.00480003,-0.00116188,-0.
 14291656,-0.21480977,-0.01966222,-0.01739508,-0.01296356,0.00032096,-0
 .00080179,-0.00076661,0.00005784,0.00019728,0.00009810,-0.00004373,0.0
 0061392,-0.00036994,0.00164301,0.15498737,0.22289337,-0.00000014,-0.00
 000089,0.00000073,0.00000035,0.00000047,-0.00000003,-0.00000065,-0.000
 00112,0.00000052,0.00000224,-0.00000028,-0.00000206,-0.00000826,-0.000
 00228,0.00000446,0.00000281,-0.00000017,-0.00000122,0.00000025,-0.0000
 0010,0.00000009,0.00000054,0.00000014,-0.00000010,-0.00000021,0.000000
 25,-0.00000005,-0.00001475,-0.00001214,0.00001818,0.00001586,-0.000001
 16,-0.00000316,-0.00000031,0.00000003,0.,0.00002727,-0.00001460,-0.000
 00865,-0.00001528,0.00000512,-0.00000150,0.00000598,0.00000403,0.00000
 167,0.00000156,0.00001221,-0.00001278,0.00004698,-0.00006242,0.0000304
 5,-0.00002515,0.00005600,0.00000589,-0.00010616,-0.00002734,-0.0000452
 3,-0.00000374,0.00000411,0.00000051,-0.00032868,0.00056694,-0.00064550
 ,0.00000063,-0.00000533,-0.00000382,0.00017419,-0.00000662,0.00004436,
 0.00000154,0.00000019,-0.00000175,-0.00000087,0.00000106,0.00000042,0.
 00000149,0.00000210,0.00000110,0.00015820,-0.00014369,-0.00113117,-0.0
 0005203,-0.00001740,0.00002828,-0.00000415,-0.00000634,-0.00001568,-0.
 00001308,0.00000069,0.00012599,0.00319991,-0.00470880,0.00248276,0.004
 99372,-0.00253561,0.00324410,0.00990825,0.01183423,0.00507292,-0.00412
 507,-0.01957640,-0.04560561,-0.01161652,-0.01290629,0.00312653,-0.0006
 1882,-0.00063747,-0.00009730,0.00046766,0.00059960,0.00006995,-0.00199
 194,0.00144745,-0.00211954,0.00139538,0.02417534,0.03734794,-0.0000051
 1,0.00000356,-0.00000207,-0.00000688,0.00000560,-0.00000435,0.00000962
 ,0.00000784,-0.00001236,-0.00003275,0.00000987,0.00000912,0.00003620,0
 .00000286,-0.00000533,-0.00001691,-0.00000342,0.00000459,-0.00000259,0
 .00000124,0.00000039,-0.00000355,0.00000002,0.00000136,0.00000357,-0.0
 0000031,0.00000130,0.00016971,0.00008849,-0.00013862,-0.00008072,0.000
 04504,0.00000234,-0.00000080,0.00000209,-0.00000100,-0.00032095,0.0001
 3458,-0.00002429,0.00000771,-0.00023578,0.00014241,0.00005158,0.000086
 15,-0.00008727,-0.00003437,-0.00007244,0.00008677,-0.00024204,0.000188
 70,-0.00010766,0.00030088,-0.00029111,0.00004728,0.00029702,0.00016320
 ,-0.00004613,-0.00002361,0.00002587,0.00007407,-0.00033934,0.00090511,
 0.00070801,0.00003165,0.00000221,0.00004850,-0.00013867,-0.00039235,-0
 .00009342,-0.00002749,-0.00002501,0.00000473,-0.00001032,-0.00000184,-
 0.00000510,0.00000671,-0.00001110,-0.00000550,0.00069896,-0.00465357,0
 .00135356,-0.00023698,-0.00016689,-0.00009144,-0.00000192,-0.00003858,
 -0.00003530,0.00002920,-0.00000652,0.00006022,-0.01229589,0.00316727,0
 .01051546,0.00011209,-0.00015120,-0.00060191,0.00258360,-0.00012788,0.
 00231365,-0.00166246,-0.00194614,0.00173056,-0.26333999,0.00659621,0.1
 2919602,-0.00008791,0.00123005,-0.00169501,-0.00027207,0.00021865,-0.0
 0030275,-0.00017398,-0.00011687,0.00008209,-0.00032932,0.00084425,-0.0
 0147899,0.27534814,-0.00000097,0.00000136,-0.00000082,-0.00000211,0.00
 000066,-0.00000077,0.00000250,0.00000290,-0.00000344,-0.00000846,0.000
 00309,0.00000411,0.00001233,0.00000179,-0.00000413,-0.00000549,-0.0000
 0067,0.00000148,-0.00000065,0.00000031,0.00000004,-0.00000108,-0.00000
 006,0.00000034,0.00000080,-0.00000024,0.00000036,0.00004686,0.00002601
 ,-0.00004246,-0.00002688,0.00001168,0.00000280,-0.00000003,0.00000040,
 -0.00000030,-0.00008868,0.00003392,-0.00000391,0.00000971,-0.00005949,
 0.00003282,0.00000792,0.00001920,-0.00001898,-0.00000900,-0.00002116,0
 .00002675,-0.00003667,0.00003915,-0.00002512,0.00008859,-0.00005760,0.
 00002401,0.00007199,0.00001215,-0.00001024,-0.00000497,0.00000463,0.00
 001357,-0.00086384,0.00056169,0.00059429,0.00000892,0.00000110,0.00001
 323,-0.00002971,-0.00005393,-0.00005432,-0.00000668,-0.00000506,0.0000
 0062,-0.00000331,-0.00000136,-0.00000099,0.00000092,-0.00000361,-0.000
 00158,-0.00392005,-0.00182433,-0.00313999,-0.00021774,-0.00029662,0.00
 011783,-0.00000628,-0.00001745,-0.00001087,0.00000524,-0.00001885,-0.0
 0000616,-0.02093498,0.00458395,0.01230621,-0.00019554,-0.00112243,-0.0
 0008896,-0.00060791,-0.00250265,-0.00478972,0.02203011,0.00316942,-0.0
 1234998,0.00694386,-0.05315173,-0.01303808,0.00146810,0.00004116,0.001
 67708,0.00021796,-0.00006788,0.00040516,0.00108771,0.00001369,-0.00060
 419,0.00045534,0.00020284,0.00195649,-0.00548782,0.05047403,0.00000131
 ,-0.00000226,0.00000188,0.00000257,-0.00000146,0.00000104,-0.00000358,
 -0.00000377,0.00000504,0.00001294,-0.00000340,-0.00000522,-0.00002261,
 -0.00000426,0.00000828,0.00000956,0.00000142,-0.00000288,0.00000121,-0
 .00000060,-0.00000009,0.00000182,0.00000013,-0.00000068,-0.00000141,0.
 00000029,-0.00000062,-0.00007274,-0.00004477,0.00007087,0.00004860,-0.
 00001722,-0.00000666,-0.00000018,-0.00000067,0.00000034,0.00014830,-0.
 00005410,0.00000592,-0.00002133,0.00008678,-0.00004512,-0.00000823,-0.
 00002449,0.00002452,0.00001195,0.00003768,-0.00004493,0.00009330,-0.00
 008143,0.00004216,-0.00013949,0.00010019,-0.00004213,-0.00012927,-0.00
 006680,-0.00000603,0.00000715,-0.00000863,-0.00002611,-0.00014202,-0.0
 0019284,0.00024318,-0.00001472,-0.00000411,-0.00001576,0.00010494,0.00
 021503,0.00004893,0.00001033,0.00000754,-0.00000126,0.00000335,-0.0000
 0051,0.00000149,-0.00000315,0.00000391,0.00000250,0.00141485,-0.002853
 72,0.00544868,-0.00007313,0.00009874,-0.00020974,-0.00000237,0.0000127
 3,0.00001814,0.00002566,-0.00000755,0.00000535,-0.00266392,-0.00093052
 ,0.00435901,-0.00066813,-0.00030340,-0.00062229,0.00214870,-0.00500509
 ,0.00285289,0.01485943,0.00123025,-0.00417875,0.12947659,-0.01324679,-
 0.11618822,-0.00161731,0.00186869,-0.00246178,-0.00027235,0.00040234,-
 0.00064565,0.00077073,0.00002127,-0.00029326,-0.00165343,0.00175354,-0
 .00191172,-0.14164390,0.01701786,0.11356869\\-0.00000016,-0.00000698,0
 .00000904,-0.00000004,-0.00000346,0.00000238,0.00000472,-0.00000395,0.
 00000119,-0.00000381,-0.00000585,0.00000504,-0.00000270,-0.00000235,0.
 00000469,-0.00000028,-0.00000330,0.00000731,-0.00000186,-0.00000492,0.
 00000841,0.00000141,-0.00000841,0.00000469,0.00000226,-0.00000662,0.00
 000093,-0.00000111,0.00000060,0.00000587,-0.00000437,0.00000235,0.0000
 0374,-0.00000351,-0.00000106,0.00000845,0.00000857,-0.00000818,-0.0000
 0330,-0.00000284,0.00000252,0.00000418,-0.00000233,0.00000212,0.000004
 19,0.00000418,-0.00000447,-0.00000632,-0.00000009,-0.00000188,-0.00000
 331,-0.00000127,0.00000243,0.00000377,-0.00000373,-0.00000061,-0.00000
 548,0.00000796,0.00000336,-0.00000873,-0.00000439,0.00000384,-0.000003
 07,0.00000187,0.00000507,-0.00000375,0.00000471,0.00000195,-0.00000578
 ,0.00000361,0.00000031,-0.00000386,0.00000200,-0.00000235,-0.00000719,
 0.00000118,0.00000291,-0.00000866,0.00000065,0.00000118,-0.00000056,-0
 .00000037,-0.00000119,-0.00000232,0.00000185,0.00000561,-0.00000851,0.
 00000084,0.00000374,-0.00000749,0.00000058,0.00000476,-0.00000183,-0.0
 0000084,0.00000145,0.00000157,-0.00000169,0.00000089,0.00000230,-0.000
 00210,0.00000219,0.00000140,-0.00000183,0.00000446,-0.00000132,-0.0000
 0073,0.00000501,-0.00000417,0.00000015,-0.00000169,0.00000216,-0.00000
 183,-0.00000032,0.00000395,-0.00000237,0.00000372,0.00000256,-0.000002
 33,0.00000710,-0.00000217\\\@


 IT WAS A GAME, A VERY INTERESTING GAME ONE COULD
 PLAY.  WHENEVER ONE SOLVED ONE OF THE LITTLE PROBLEMS,
 ONE COULD WRITE A PAPER ABOUT IT.  IT WAS VERY EASY IN
 THOSE DAYS FOR ANY SECOND-RATE PHYSICIST TO DO
 FIRST-RATE WORK.  THERE HAS NOT BEEN SUCH A GLORIOUS
 TIME SINCE.  IT IS VERY DIFFICULT NOW FOR A FIRST-RATE
 PHYSICIST TO DO SECOND-RATE WORK.
     P.A.M. DIRAC, ON THE EARLY DAYS OF QUANTUM MECHANICS
                   DIRECTIONS IN PHYSICS, 1978, P. 7
 Job cpu time:  0 days 19 hours 50 minutes 28.0 seconds.
 File lengths (MBytes):  RWF=   1316 Int=      0 D2E=      0 Chk=     30 Scr=      1
 Normal termination of Gaussian 09 at Fri Oct  8 09:04:52 2010.
