 --invoking executable xjoda
File JOBARC is /home/usc/qo/anv/n4li2/cc/n4li2_d4h_ccapVDZf.JOBARC.
File JAINDX is /home/usc/qo/anv/n4li2/cc/n4li2_d4h_ccapVDZf.JAINDX.
File OPTARC is /home/usc/qo/anv/n4li2/cc/n4li2_d4h_ccapVDZf.OPTARC.
File DIPDER is /home/usc/qo/anv/n4li2/cc/n4li2_d4h_ccapVDZf.DIPDER.
File FCMINT is /home/usc/qo/anv/n4li2/cc/n4li2_d4h_ccapVDZf.FCMINT.


   *************************************************************************
         <<<     CCCCCC     CCCCCC   |||     CCCCCC     CCCCCC   >>>
       <<<      CCC        CCC       |||    CCC        CCC         >>>
      <<<      CCC        CCC        |||   CCC        CCC            >>>
    <<<        CCC        CCC        |||   CCC        CCC              >>>
      <<<      CCC        CCC        |||   CCC        CCC            >>>
       <<<      CCC        CCC       |||    CCC        CCC         >>>
         <<<     CCCCCC     CCCCCC   |||     CCCCCC     CCCCCC   >>>
   *************************************************************************

     ****************************************************************
     * CFOUR Coupled-Cluster techniques for Computational Chemistry *
     ****************************************************************
 

   Department of Chemistry                Institut fuer Physikalische Chemie
   University of Texas at Austin          Universitaet Mainz
   Austin, TX  48792, USA                 D-55099 Mainz, Germany
 
                       version 1.2
 
                     cn011                                             
                     Sat Aug 22 00:35:08 CEST 2009                     
                     integer*8 version is running
 
    -------------------------------------------------------------------
                    Input from ZMAT file
    -------------------------------------------------------------------
 
 % JOBARC=/home/usc/qo/anv/n4li2/cc/n4li2_d4h_ccapVDZf.JOBARC                   
 % JAINDX=/home/usc/qo/anv/n4li2/cc/n4li2_d4h_ccapVDZf.JAINDX                   
 % OPTARC=/home/usc/qo/anv/n4li2/cc/n4li2_d4h_ccapVDZf.OPTARC                   
 % DIPDER=/home/usc/qo/anv/n4li2/cc/n4li2_d4h_ccapVDZf.DIPDER                   
 % FCMINT=/home/usc/qo/anv/n4li2/cc/n4li2_d4h_ccapVDZf.FCMINT                   
 N2Li4 d4h CCSD(T) full aug-cc-pVDZ (5d) frequencies                            
 X                                                                              
 LI 1 r1                                                                        
 N 1 r2 2 a1                                                                    
 N 1 r2 3 a1 2 d1                                                               
 N 1 r2 4 a1 2 d1                                                               
 N 1 r2 5 a1 2 d1                                                               
 LI 1 r1 3 a1 2 d2                                                              
                                                                                
 r1   =        1.701004035944592                                                
 r2   =        0.999649568632105                                                
 a1   =       90.000000000000000                                                
 d1   =       90.000000000000000                                                
 d2   =      180.000000000000000                                                
                                                                                
 *CFOUR(CALC=CCSD(T),BASIS=SPECIAL                                              
 MEMORY_SIZE=3,MEM_UNIT=GB                                                      
 ABCDTYPE=AOBASIS,CC_PROG=ECC,VIB=EXACT)                                        
                                                                                
 LI:aug-cc-pVDZ                                                                 
 N:aug-cc-pVDZ                                                                  
 N:aug-cc-pVDZ                                                                  
 N:aug-cc-pVDZ                                                                  
 N:aug-cc-pVDZ                                                                  
 LI:aug-cc-pVDZ                                                                 
                                                                                
                                                                                
                                                                                
                                                                                
 
    -------------------------------------------------------------------
                    CFOUR Control Parameters 
    -------------------------------------------------------------------
        External           Internal           Value            Units
          Name               Name
    -------------------------------------------------------------------
       PRINT                IPRNT               0               ***   
       CALCLEVEL            ICLLVL           CCSD(T)    [ 22]   ***   
       DERIV_LEV            IDRLVL            SECOND    [  2]   ***   
       CC_CONV              ICCCNV          10D-  7             ***   
       SCF_CONV             ISCFCV          10D-  7             ***   
       XFORM_TOL            IXFTOL          10D- 11             ***   
       CC_MAXCYC            ICCCYC             50              cycles 
       LINDEP_TOL           ILINDP              8               ***   
       RDO                  IRDOFM              ON      [  1]   ***   
  
       SCF_EXTRAPO          IRPP                ON      [  1]   ***   
       REFERENCE            IREFNC             RHF      [  0]   ***   
       CC_EXPORDER          ICCEOR              5               ***   
       TAMP_SUM             IEVERY              5               ***   
       NTOP_TAMP            ITOPT2             15               ***   
       CCORBOPT             ICCORB             OFF      [  0] x 0.01  
       SCF_MAXCYC           ISCFCY            150              cycles 
       OCCUPATION           IOCCU   ESTIMATED BY SCF 
       PROPS                IPROPS             OFF      [  0]   ***   
       RELAX_DENS           IRDENS              ON      [  1]   ***   
  
       SCF_EXPORDE          IRPPOR              6               ***   
       CC_EXTRAPOL          ICCEXT             DIIS     [  1]   ***   
       BRUECKNER            IBRKNR             OFF      [  0]   ***   
       XFIELD               IXEFLD              0             x 10-6  
       YFIELD               IYEFLD              0             x 10-6  
       ZFIELD               IZEFLD              0             x 10-6  
       SAVE_INTS            ISVINT             OFF      [  0]   ***   
       DROPMO               IDRPMO      NONE         
       CHARGE               ICHRGE              0               ***   
       MULTIPLICTY          IMULTP              1               ***   
  
       CPHF_CONVER          ICPHFT          10D- 16             ***   
       CPHF_MAXCYC          ICPHFC             64              cycles 
       INCORE               INCORE             OFF      [  0]   ***   
       MEMORY_SIZE          IMEMSZ         375000000           words  
       FILE_RECSIZ          IFLREC              4096           words  
       NON-HF               INONHF             OFF      [  0]   ***   
       ORBITALS             IORBTP           STANDARD   [  0]   ***   
  
       SCF_EXPSTAR          IRPPLS              8               ***   
       LOCK_ORBOCC          ILOCOC             OFF      [  0]   ***   
       HBAR                 IHBAR              OFF      [  0]   ***   
       CACHE_RECS           ICHREC             10               ***   
       GUESS                IGUESS            MOREAD    [  0]   ***   
       JODA_PRINT           IJPRNT              0               ***   
       GEO_METHOD           INR            SINGLE_POINT [  5]   ***   
       GEO_CONV             ICONTL              5              H/bohr 
       EIGENVECTOR          IVEC                1               ***   
  
       NEGEVAL              IDIE             ABORT      [  0]   ***   
       CURVILINEAR          ICURVY            OFF       [  0]   ***   
       SCALE_ON             ISTCRT              0               ***   
       GEO_MAXSTEP          IMXSTP            300            millibohr
       VIBRATION            IVIB             ANALYTIC   [  1]   ***   
       EVAL_HESS            IRECAL              0            # of cyc.
       INTEGRALS            INTTYP             VMOL     [  1]   ***   
       FD_STEPSIZE          IDISFD              0            10-4 bohr
       POINTS               IGRDFD              0               ***   
       CONTRACTION          ICNTYP          GENERAL     [  1]   ***   
  
       SYMMETRY             ISYM             ON         [  0]   ***   
       BASIS                IBASIS         SPECIAL      [  0]   ***   
       SPHERICAL            IDFGHI             ON       [  1]   ***   
       RESET_FLAGS          IRESET             OFF      [  0]   ***   
       PERT_ORB             IPTORB         CANONICAL    [  1]   ***   
       GENBAS_1             IGNBS1              0               ***   
       GENBAS_2             IGNBS2              0               ***   
       GENBAS_3             IGNBS3              0               ***   
       COORDINATES          ICOORD         INTERNAL     [  0]   ***   
       SYM_CHECK            ISYMCK         OVERRIDE     [  1]   ***   
  
       SCF_PRINT            ISCFPR              0               ***   
       ECP                  IECP           OFF          [  0]   ***   
       RESTART_CC           ICCRES         OFF          [  0]   ***   
       TRANS_INV            ITRAIN         USE          [  0]   ***   
       HFSTABILITY          ISTABL         OFF          [  0]   ***   
       ROT_EVEC             ROTVEC              0               ***   
       BRUCK_CONV           IBRTOL          10D-  4             ***   
       UNITS                IUNITS         ANGSTROM     [  0]   ***   
       FD_USEGROUP          IFDGRP         FULL         [  0]   ***   
  
       FD_PROJECT           IFDPRJ         ON           [  0]   ***   
       FD_CALTYPE           IFDCAL         GRADONLY     [  0]   ***   
       VTRAN                IVTRAN         PARTIAL      [  2]   ***   
       HF2_FILE             IHF2Fl         USE          [  1]   ***   
       SUBGROUP             ISUBGP         DEFAULT      [  0]   ***   
       SUBGRPAXIS           ISBXYZ         X            [  0]   ***   
       EXCITE               IEXCIT         NONE         [  0]   ***   
       LINEQ_CONV           IZTACN          10D-  7           cycles  
  
       TREAT_PERT           ITREAT         SIMULTANEOUS [  0]   ***   
       ESTATE_PROP          IEXPRP         OFF          [  0]   ***   
       GEO_MAXCYC           IOPTCY             50               ***   
       ABCDTYPE             IABCDT         AOBASIS      [  2]   ***   
       AO_LADDERS           IAOLAD         SINGLEPASS   [  1]   ***   
       FOCK                 IFOCK          AO           [  1]   ***   
       ESTATE_MAXC          IEXMXC             20               ***   
       ESTATE_CONV          IEXTOL          10D-  5             ***   
       DIRECT               IDIRCT         OFF          [  0]   ***   
  
       GAMMA_ABCD           IGABCD         DIRECT       [  1]   ***   
       LINEQ_TYPE           ILTYPE         DIIS         [  1]   ***   
       LINEQ_MAXCY          ILMAXC             50               ***   
       TRANGRAD             IRESRM         OFF          [  0]   ***   
       PSI                  IPSI           OFF          [  0]   ***   
       GAMMA_ABCI           IGABCI         STORE        [  0]   ***   
       ESTATE_DIAG          IEXDIG         ITERATIVE    [  0]   ***   
       FC_FIELD             IFINFC              0             x 10-6  
       SD_FIELD             IFINSD              0             x 10-6  
       DIFF_TYPE            IDIFTY         RELAXED      [  0]   ***   
  
       LINEQ_EXPOR          ILMAXD              5               ***   
       FINITE_PERT          IFIPER              0             x 10-6  
       ANHARMONIC           IANHAR         OFF          [  0]   ***   
       CC_PROGRAM           ICCPRO         ECC          [  1]   ***   
       OPEN-SHELL           IOPEN          SPIN-ORBITAL [  0]   ***   
       UIJ_THRESHO          IUIJTH             25               ***   
       SCF_DAMPING          IDAMP               0             x 10-3  
       PROP_INTEGR          IINTYP         INTERNAL     [  0]   ***   
       ANH_SYMMETR          IANHSM         ABELIAN      [  0]   ***   
       ANH_ALGORIT          IANALG         STANDARD     [  0]   ***   
  
       EOM_NONIT            EOMNON         OFF          [  0]   ***   
       VIB_ALGORIT          IGEALG         STANDARD     [  0]   ***   
       ANH_DERIVAT          IANDER         SECOND       [  1]   ***   
       SPINROTATIO          ISRCON         OFF          [  0]   ***   
       CIS_CONV             ICISTL              5               ***   
       ANH_STEPSIZ          ICUBST             50000          x 10-6  
       SPIN_FLIP            ISPFLP         OFF          [  0]   ***   
       GRID                 IGRID          OFF          [  0]   ***   
  
       DBOC                 IDBOC          OFF          [  0]   ***   
       EOMFOLLOW            IEOMSR         ENERGY       [  0]   ***   
       T3_EXTRAPOL          IT3EXT         OFF          [  0]   ***   
       ESTATE_LOCK          IESLOC         OFF          [  0]   ***   
       UNOS                 IUNOS          OFF          [  0]   ***   
       FREQ_ALGORI          IVIALG         STANDARD     [  0]   ***   
       RELATIVIST           IRELAT         OFF          [  0]   ***   
       FROZEN_CORE          IFROCO         OFF          [  0]   ***   
       EXCITATION           IEXCIT              0               ***   
       INPUT_MRCC           IMRCC          ON           [  1]   ***   
  
       GIAO                 IGIAO          OFF          [  1]   ***   
       EOM_NSING            IEOMSI          10D-  0             ***   
       EOM_NTRIP            IEOMTR          10D-  0             ***   
       EOM_NSTATES          IMRCCD         DAVIDSON     [  0]   ***   
       DIAG_MRCC            IEOMST          10D-  0             ***   
       NEWNORM              INEWNO         OFF          [  0]   ***   
       TESTSUITE            ITESTS         OFF          [  0]   ***   
       BUFFERSIZE           IBUFFS            600               ***   
       SPINORBIT            ISOCAL         OFF          [  0]   ***   
       DCT                  IDCT           OFF          [  0]   ***   
  
       PARALLEL             IPARAL         ON           [  1]   ***   
       PARA_PRINT           IPPRIN              0               ***   
       COMM_SIZE            IPSIZE            ***               ***   
       PARA_INT             IPINTS         ON           [  1]   ***   
       RAMAN_INT            IRAMIN         OFF          [  0]   ***   
       RAMAN_ORB            IRAMRE         UNRELAXED    [  0]   ***   
       BREIT                IBREIT         OFF          [  0]   ***   
       MEM_UNIT             IMEMU          GB           [  3]   ***   
       SPIN_ORBIT           ISPORB         OFF          [  0]   ***   
       GENBAS_4             IGNBS4              0               ***   
  
       SPIN_SCAL            ISCSMP         OFF          [  0]   ***   
       GRID_ALGO            IGALGO         SERIAL       [  0]   ***   
       VIBPHASE             ISETPH         STANDARD     [  0]   ***   
       SEQUENCE             ISEQUE         OFF          [  0]   ***   
       HESS_TYPE            IHESTP         SCF          [  0]   ***   
       CONTINUUM            ICONTU         NONE         [  0]   ***   
       SCF_NOSTOP           ISCFST         OFF          [  0]   ***   
       CONSTANT             ICONST         OLD          [  1]   ***   
  
       EOM_MRCC             IMRCCE         OLD          [  0]   ***   
       EOM_ORDER            IEXORD         ENERGY       [  0]   ***   
       GIMIC                IGIMIC         OFF          [  0]   ***   
    -------------------------------------------------------------------
   7 entries found in Z-matrix 
   Job Title : N2Li4 d4h CCSD(T) full aug-cc-pVDZ (5d) frequencies                             
   There are  5 unique internal coordinates.
   Of these,  0 will be optimized.
   User supplied Z-matrix: 
--------------------------------------------------------------------------------
       SYMBOL    BOND      LENGTH    ANGLE     ANGLE     DIHED     ANGLE
                  TO      (ANGST)    WRT      (DEG)      WRT      (DEG)
--------------------------------------------------------------------------------
        X    
        LI         1         r1   
        N          1         r2         2        a1   
        N          1         r2         3        a1         2        d1   
        N          1         r2         4        a1         2        d1   
        N          1         r2         5        a1         2        d1   
        LI         1         r1         3        a1         2        d2   
                  *Initial values for internal coordinates* 
                      Name             Value
                        r1              1.7010040359
                        r2              0.9996495686
                        a1             90.0000000000
                        d1             90.0000000000
                        d2            180.0000000000
--------------------------------------------------------------------------------
  1  X          0     0.00000
  2  LI         3     7.01600
  3  N          7    14.00307
  4  N          7    14.00307
  5  N          7    14.00307
  6  N          7    14.00307
  7  LI         3     7.01600
   Rotational constants (in cm-1): 
          0.2457848752             0.2457848752             0.3011740950
   Rotational constants (in MHz): 
       7368.4462190936          7368.4462190936          9028.9734888838
********************************************************************************
   The full molecular point group is D4h .
   The largest Abelian subgroup of the full molecular point group is D2h .
   The computational point group is D2h .
********************************************************************************
--------------------------------------------------------------------------------
   Analysis of internal coordinates specified by Z-matrix 
--------------------------------------------------------------------------------
   *The nuclear repulsion energy is  145.76388 a.u.
   *There are   2 degrees of freedom within the tot. symm. molecular subspace.
   *Z-matrix requests optimization of   0 coordinates.
   *The optimization is constrained.
   *The following   2 parameters can have non-zero 
    derivatives within the totally symmetric subspace:
             r1   [ 1]  r2   [ 4]
   *The following   0 parameters are to be optimized:

   *The following coordinates must be varied in an  unconstrained optimization.
             r1   [ 1]  r2   [ 4]
--------------------------------------------------------------------------------
 ----------------------------------------------------------------
 Z-matrix   Atomic            Coordinates (in bohr)
  Symbol    Number           X              Y              Z
 ----------------------------------------------------------------
     X         0         0.00000000     0.00000000     0.00000000
     LI        3         0.00000000     0.00000000    -3.21443244
     N         7         1.33577018    -1.33577018     0.00000000
     N         7        -1.33577018    -1.33577018     0.00000000
     N         7        -1.33577018     1.33577018     0.00000000
     N         7         1.33577018     1.33577018     0.00000000
     LI        3         0.00000000     0.00000000     3.21443244
 ----------------------------------------------------------------
   Interatomic distance matrix (Angstroms) 
 
                 X             LI            N             N             N    
                [ 1]        [ 2]        [ 3]        [ 4]        [ 5]
  X    [ 1]     0.00000
  LI   [ 2]     1.70100     0.00000
  N    [ 3]     0.99965     1.97300     0.00000
  N    [ 4]     0.99965     1.97300     1.41372     0.00000
  N    [ 5]     0.99965     1.97300     1.99930     1.41372     0.00000
  N    [ 6]     0.99965     1.97300     1.41372     1.99930     1.41372
  LI   [ 7]     1.70100     3.40201     1.97300     1.97300     1.97300
 
                 N             LI   
                [ 6]        [ 7]
  N    [ 6]     0.00000
  LI   [ 7]     1.97300     0.00000
   Rotational constants (in cm-1): 
          0.2457848752             0.2457848752             0.3011740950
   Rotational constants (in MHz): 
       7368.4462190936          7368.4462190936          9028.9734888838
  There are  138 basis functions.
                0.38 seconds walltime passed
 --executable xjoda finished with status            0
  flag is                      5
 --invoking executable xvmol
 Serial version of molecule started
 
    -------------------------------------------------------------------
                    Input from MOL file
    -------------------------------------------------------------------
 INTGRL        1    0    1    0    0    0    0    0    0                        
          *** CFOUR Program System (Release V0.1) ***                           
 N2Li4 d4h CCSD(T) full aug-cc-pVDZ (5d) frequencies                            
     2    3 X  Y   Z   0.10E-08              0    0                             
    9999.00      3.00                                                           
           3.00000000    1    3    1    1    1                                  
 LI#1      0.000000000000      0.000000000000     -3.214432438487               
    10    4                                                                     
    1469.00000000000       7.660000000000000E-004 -1.200000000000000E-004       
   0.000000000000000E+000  0.000000000000000E+000                               
    220.500000000000       5.892000000000000E-003 -9.230000000000000E-004       
   0.000000000000000E+000  0.000000000000000E+000                               
    50.2600000000000       2.967100000000000E-002 -4.689000000000000E-003       
   0.000000000000000E+000  0.000000000000000E+000                               
    14.2400000000000       0.109180000000000      -1.768200000000000E-002       
   0.000000000000000E+000  0.000000000000000E+000                               
    4.58100000000000       0.282789000000000      -4.890200000000000E-002       
   0.000000000000000E+000  0.000000000000000E+000                               
    1.58000000000000       0.453123000000000      -9.600900000000000E-002       
   0.000000000000000E+000  0.000000000000000E+000                               
   0.564000000000000       0.274774000000000      -0.136380000000000            
   0.000000000000000E+000  0.000000000000000E+000                               
   7.345000000000000E-002  9.750999999999999E-003  0.575102000000000            
   0.000000000000000E+000  0.000000000000000E+000                               
   2.805000000000000E-002  0.000000000000000E+000  0.000000000000000E+000       
    1.00000000000000       0.000000000000000E+000                               
   8.640000000000000E-003  0.000000000000000E+000  0.000000000000000E+000       
   0.000000000000000E+000   1.00000000000000                                    
     5    3                                                                     
    1.53400000000000       2.278400000000000E-002  0.000000000000000E+000       
   0.000000000000000E+000                                                       
   0.274900000000000       0.139107000000000       0.000000000000000E+000       
   0.000000000000000E+000                                                       
   7.362000000000000E-002  0.500375000000000       0.000000000000000E+000       
   0.000000000000000E+000                                                       
   2.403000000000000E-002  0.000000000000000E+000   1.00000000000000            
   0.000000000000000E+000                                                       
   5.790000000000000E-003  0.000000000000000E+000  0.000000000000000E+000       
    1.00000000000000                                                            
     2    2                                                                     
   0.123900000000000        1.00000000000000       0.000000000000000E+000       
   7.250000000000000E-002  0.000000000000000E+000   1.00000000000000            
           7.00000000    1    3    1    1    1                                  
 N #2      1.335770177489     -1.335770177489      0.000000000000               
    10    4                                                                     
    9046.00000000000       7.000000000000000E-004 -1.530000000000000E-004       
   0.000000000000000E+000  0.000000000000000E+000                               
    1357.00000000000       5.389000000000000E-003 -1.208000000000000E-003       
   0.000000000000000E+000  0.000000000000000E+000                               
    309.300000000000       2.740600000000000E-002 -5.992000000000000E-003       
   0.000000000000000E+000  0.000000000000000E+000                               
    87.7300000000000       0.103207000000000      -2.454400000000000E-002       
   0.000000000000000E+000  0.000000000000000E+000                               
    28.5600000000000       0.278723000000000      -6.745900000000001E-002       
   0.000000000000000E+000  0.000000000000000E+000                               
    10.2100000000000       0.448540000000000      -0.158078000000000            
   0.000000000000000E+000  0.000000000000000E+000                               
    3.83800000000000       0.278238000000000      -0.121831000000000            
   0.000000000000000E+000  0.000000000000000E+000                               
   0.746600000000000       1.544000000000000E-002  0.549003000000000            
   0.000000000000000E+000  0.000000000000000E+000                               
   0.224800000000000       0.000000000000000E+000  0.000000000000000E+000       
    1.00000000000000       0.000000000000000E+000                               
   6.124000000000000E-002  0.000000000000000E+000  0.000000000000000E+000       
   0.000000000000000E+000   1.00000000000000                                    
     5    3                                                                     
    13.5500000000000       3.991900000000000E-002  0.000000000000000E+000       
   0.000000000000000E+000                                                       
    2.91700000000000       0.217169000000000       0.000000000000000E+000       
   0.000000000000000E+000                                                       
   0.797300000000000       0.510319000000000       0.000000000000000E+000       
   0.000000000000000E+000                                                       
   0.218500000000000       0.000000000000000E+000   1.00000000000000            
   0.000000000000000E+000                                                       
   5.611000000000000E-002  0.000000000000000E+000  0.000000000000000E+000       
    1.00000000000000                                                            
     2    2                                                                     
   0.817000000000000        1.00000000000000       0.000000000000000E+000       
   0.230000000000000       0.000000000000000E+000   1.00000000000000            
 FINISH                                                                         
 
    -------------------------------------------------------------------
 
 One- and two-electron integrals over symmetry-adapted AOs are calculated.

  Spherical harmonics are used.
  
  Integrals less than  0.10E-13 are neglected.

   Basis function not normalized: 
   Center (as ordered in MOL file):   1
   Angular Momentum type          : s
   Offset within angular momentum :  2
   <chi|chi>                      :    1.8749330091
   Basis function not normalized: 
   Center (as ordered in MOL file):   1
   Angular Momentum type          : p
   Offset within angular momentum :  1
   <chi|chi>                      :    1.6680118081
   Basis function not normalized: 
   Center (as ordered in MOL file):   2
   Angular Momentum type          : s
   Offset within angular momentum :  2
   <chi|chi>                      :    1.9933993200
   Basis function not normalized: 
   Center (as ordered in MOL file):   2
   Angular Momentum type          : p
   Offset within angular momentum :  1
   <chi|chi>                      :    1.4756300702
  Nuclear repulsion energy :  145.7638799163 a.u.
  required memory for a1 array                3604880  words 
  required memory for a2 array                2070308  words 
 basis number:   3    25
 basis number:   7    25
  @MOLECU-I, One electron integrals required         0.15000 seconds.
  @TWOEL-I,     147429 integrals of symmetry type  I I I I
  @TWOEL-I,    1397388 integrals of symmetry type  I J I J
  @TWOEL-I,     773206 integrals of symmetry type  I I J J
  @TWOEL-I,    3369467 integrals of symmetry type  I J K L
  @TWOEL-I, Total number of 2-e integrals    5687490.
  @MOLECU-I, Two electron integrals required        18.37000 seconds.
  @CHECKOUT-I, Total execution time :      18.6000 seconds.
                8.00 seconds walltime passed
 --executable xvmol finished with status            0
 --invoking executable xvmol2ja
  @CHECKOUT-I, Total execution time :       0.0400 seconds.
                0.25 seconds walltime passed
 --executable xvmol2ja finished with status            0
 --invoking executable xvscf
 NSOSCF                     0
  There are  138 functions in the AO basis.

  There are 8 irreducible representations.

       Irrep        # of functions
         1                 27
         2                 21
         3                 21
         4                 18
         5                 18
         6                 12
         7                 12
         8                  9


  Parameters for SCF calculation: 
        SCF reference function:  RHF  
  Maximum number of iterations:  150
     Full symmetry point group: D4h 
     Computational point group: D2h 
        Initial density matrix: MOREAD                 
     SCF convergence tolerance: 10**(- 7)
  DIIS convergence acceleration:  ON
          Latest start for DIIS:   8
                     DIIS order:   6

  Memory information:     748289 words required.
  Fock matrices are constructed from AO integral file.
  Initialization and symmetry analysis required      0.000 seconds.

  @INITGES-I, Occupancies from core Hamiltonian:

          Alpha population by irrep:   4    3    3    3    1    1    1    1
           Beta population by irrep:   4    3    3    3    1    1    1    1


 total no. of electrons in initial guess :  0.000000000000000E+000
  --------------------------------------------------------------------
  Iteration         Total Energy            Largest Density Difference
  --------------------------------------------------------------------
       0           145.763879916301278              0.0000000000D+00
   current occupation vector 
     4  3  3  3  1  1  1  1
     4  3  3  3  1  1  1  1
       1          -191.445891479473971              0.2747091918D+01
   current occupation vector 
     4  3  3  3  1  1  1  1
     4  3  3  3  1  1  1  1
       2          -162.050202834082654              0.8384678952D+02
   current occupation vector 
     5  2  2  1  4  2  1  0
     5  2  2  1  4  2  1  0
       3          -198.062024064936395              0.8384762195D+02
   current occupation vector 
     4  3  3  3  1  1  1  1
     4  3  3  3  1  1  1  1
       4          -161.932705063663661              0.8484669392D+02
   current occupation vector 
     5  2  2  1  4  2  1  0
     5  2  2  1  4  2  1  0
       5          -198.064762520235718              0.8484667900D+02
   current occupation vector 
     4  3  3  3  1  1  1  1
     4  3  3  3  1  1  1  1
       6          -161.928723978621179              0.8487407222D+02
   current occupation vector 
     5  2  2  1  4  2  1  0
     5  2  2  1  4  2  1  0
       7          -198.064687051669353              0.8487407178D+02
   current occupation vector 
     4  3  3  3  1  1  1  1
     4  3  3  3  1  1  1  1
       8          -161.928619660422839              0.8487471424D+02
   current occupation vector 
     5  2  2  1  4  2  1  0
     5  2  2  1  4  2  1  0
       9          -220.989011533830535              0.8483904773D+02
   current occupation vector 
     5  3  3  2  2  1  1  0
     5  3  3  2  2  1  1  0
      10          -223.141571332712545              0.3267438277D+00
   current occupation vector 
     5  3  3  2  2  1  1  0
     5  3  3  2  2  1  1  0
      11          -225.305436828621509              0.1935259066D+00
   current occupation vector 
     5  3  3  2  2  1  1  0
     5  3  3  2  2  1  1  0
      12          -226.362108937196354              0.1056886110D+00
   current occupation vector 
     5  3  3  2  2  1  1  0
     5  3  3  2  2  1  1  0
      13          -228.610214337588275              0.2108095314D+00
   current occupation vector 
     5  3  3  2  2  1  1  0
     5  3  3  2  2  1  1  0
      14          -230.734234284244167              0.2552706810D+00
   current occupation vector 
     5  3  3  2  2  1  1  0
     5  3  3  2  2  1  1  0
      15          -232.535141960777253              0.5531059861D+00
   current occupation vector 
     5  3  3  2  2  1  1  0
     5  3  3  2  2  1  1  0
      16          -232.643145644551794              0.1319075636D+00
   current occupation vector 
     5  3  3  2  2  1  1  0
     5  3  3  2  2  1  1  0
      17          -232.647934215202611              0.5083462084D-01
   current occupation vector 
     5  3  3  2  2  1  1  0
     5  3  3  2  2  1  1  0
      18          -232.648567170223316              0.7139835156D-02
   current occupation vector 
     5  3  3  2  2  1  1  0
     5  3  3  2  2  1  1  0
      19          -232.648604530154387              0.4330282654D-02
   current occupation vector 
     5  3  3  2  2  1  1  0
     5  3  3  2  2  1  1  0
      20          -232.648605395635400              0.4364885459D-03
   current occupation vector 
     5  3  3  2  2  1  1  0
     5  3  3  2  2  1  1  0
      21          -232.648605427751022              0.1030787933D-03
   current occupation vector 
     5  3  3  2  2  1  1  0
     5  3  3  2  2  1  1  0
      22          -232.648605428796031              0.1316512228D-04
   current occupation vector 
     5  3  3  2  2  1  1  0
     5  3  3  2  2  1  1  0
      23          -232.648605428913925              0.2992515180D-05
   current occupation vector 
     5  3  3  2  2  1  1  0
     5  3  3  2  2  1  1  0
      24          -232.648605428918870              0.7532596267D-06
   current occupation vector 
     5  3  3  2  2  1  1  0
     5  3  3  2  2  1  1  0
      25          -232.648605428919041              0.2300579992D-06
   current occupation vector 
     5  3  3  2  2  1  1  0
     5  3  3  2  2  1  1  0

  SCF has converged.

 save density matrix on hard disk
 total electron number:   34.0000000000000     
     E(SCF)=      -232.648605428919893              0.6400351310D-07


  Final occupancies:

     Alpha population by irrep:   5    3    3    2    2    1    1    0
      Beta population by irrep:   5    3    3    2    2    1    1    0


  Eigenvector printing suppressed.

 @PUTMOS-I, Writing converged MOs to NEWMOS. 
 @PUTMOS-I, Symmetry   1 Full   6 Partial   3
 @PUTMOS-I, Symmetry   2 Full   5 Partial   1
 @PUTMOS-I, Symmetry   3 Full   5 Partial   1
 @PUTMOS-I, Symmetry   4 Full   4 Partial   2
 @PUTMOS-I, Symmetry   5 Full   4 Partial   2
 @PUTMOS-I, Symmetry   6 Full   3 Partial   0
 @PUTMOS-I, Symmetry   7 Full   3 Partial   0
 @PUTMOS-I, Symmetry   8 Full   2 Partial   1


 
  ORBITAL EIGENVALUES (ALPHA)  (1H = 27.2113838 eV)

       MO #        E(hartree)               E(eV)           FULLSYM    COMPSYM
       ----   --------------------   --------------------   -------   ---------
    1     1         -15.5940195671        -424.3348517317    A1g         Ag (1)
    2    28         -15.5934906229        -424.3204584281    E1u        B2u (2)
    3    49         -15.5934906229        -424.3204584279    E1u        B3u (3)
    4    70         -15.5928089478        -424.3019091051    B2g        B1g (4)
    5     2          -2.4403598153         -66.4055675920    A1g         Ag (1)
    6    88          -2.4402548145         -66.4027103745    A2u        B1u (5)
    7     3          -1.4223706007         -38.7046723485    A1g         Ag (1)
    8    29          -1.0425188915         -28.3683816950    E1u        B2u (2)
    9    50          -1.0425188856         -28.3683815360    E1u        B3u (3)
   10    71          -0.6316514666         -17.1881104978    B2g        B1g (4)
   11    89          -0.6250269490         -17.0078482064    A2u        B1u (5)
   12     4          -0.6159029445         -16.7595714172    B1g         Ag (1)
   13     5          -0.5801383967         -15.7863685814    A1g         Ag (1)
   14    51          -0.3839441166         -10.4476507226    E1u        B3u (3)
   15    30          -0.3839441101         -10.4476505447    E1u        B2u (2)
   16   118          -0.3498249411          -9.5192207424    E1g        B2g (7)
   17   106          -0.3498249409          -9.5192207372    E1g        B3g (6)
  +++++++++++++++++++++++++++++++++++++++++++++++++++++++++++++++++++++++++++++
   18    90           0.0051348714           0.1397269572    A2u        B1u (5)
   19     6           0.0054336509           0.1478571603    A1g         Ag (1)
   20    31           0.0153670717           0.4181592856    E1u        B2u (2)
   21    52           0.0153670718           0.4181592886    E1u        B3u (3)
   22   107           0.0182412789           0.4963704419    E1g        B3g (6)
   23   119           0.0182412790           0.4963704433    E1g        B2g (7)
   24    91           0.0216266490           0.5884910460    A2u        B1u (5)
   25     7           0.0219525813           0.5973601149    A1g         Ag (1)
   26     8           0.0458590989           1.2478895413    A1g         Ag (1)
   27    92           0.0607231580           1.6523611603    A2u        B1u (5)
   28    32           0.0643406536           1.7507982207    E1u        B2u (2)
   29    53           0.0643406539           1.7507982271    E1u        B3u (3)
   30   108           0.0744563355           2.0260599221    E1g        B3g (6)
   31   120           0.0744563357           2.0260599299    E1g        B2g (7)
   32     9           0.0958597177           2.6084755707    A1g         Ag (1)
   33    93           0.0985219835           2.6809195065    A2u        B1u (5)
   34    72           0.1401673498           3.8141475545    B2g        B1g (4)
   35   130           0.1490071821           4.0546916238    B1u         Au (8)
   36    33           0.1775412249           4.8311424159    E1u        B2u (2)
   37    54           0.1775412254           4.8311424276    E1u        B3u (3)
   38    34           0.1828278757           4.9749994996    E1u        B2u (2)
   39    55           0.1828278760           4.9749995063    E1u        B3u (3)
   40    10           0.1949622862           5.3051935990    A1g         Ag (1)
   41    11           0.1962911786           5.3413546006    B1g         Ag (1)
   42   109           0.2064542017           5.6179045229    E1g        B3g (6)
   43   121           0.2064542021           5.6179045349    E1g        B2g (7)
   44    94           0.2113327190           5.7506557295    A2u        B1u (5)
   45    95           0.2357390908           6.4147868799    B2u        B1u (5)
   46    35           0.2504561260           6.8152577740    E1u        B2u (2)
   47    56           0.2504561262           6.8152577806    E1u        B3u (3)
   48    12           0.2539076408           6.9091782690    A1g         Ag (1)
   49   131           0.2600816872           7.0771826142    B1u         Au (8)
   50    96           0.2706862198           7.3657466219    A2u        B1u (5)
   51    73           0.2904543713           7.9036653788    B2g        B1g (4)
   52    13           0.2947246885           8.0198666191    B1g         Ag (1)
   53    74           0.3057403319           8.3196175213    A2g        B1g (4)
   54   110           0.3061771834           8.3315048533    E1g        B3g (6)
   55   122           0.3061771842           8.3315048754    E1g        B2g (7)
   56    14           0.3200757794           8.7097048838    A1g         Ag (1)
   57   132           0.3547948863           9.6544598281    B1u         Au (8)
   58    36           0.3759506048          10.2301362036    E1u        B2u (2)
   59    57           0.3759506052          10.2301362165    E1u        B3u (3)
   60    58           0.3817241514          10.3872423966    E1u        B3u (3)
   61    37           0.3817241519          10.3872424105    E1u        B2u (2)
   62    75           0.4134914987          11.2516758774    B2g        B1g (4)
   63   111           0.4689724742          12.7613899952    E1g        B3g (6)
   64   123           0.4689724747          12.7613900089    E1g        B2g (7)
   65    15           0.4711723328          12.8212511928    A1g         Ag (1)
   66    76           0.5605395134          15.2530558439    A2g        B1g (4)
   67    38           0.5610568282          15.2671326971    E1u        B2u (2)
   68    59           0.5610568311          15.2671327770    E1u        B3u (3)
   69    97           0.5624950338          15.3062682609    B2u        B1u (5)
   70    98           0.5710875870          15.5400835255    A2u        B1u (5)
   71    16           0.6083604805          16.5543305362    B1g         Ag (1)
   72    77           0.6321876081          17.2026996501    B2g        B1g (4)
   73   133           0.6769784831          18.4215213403    B1u         Au (8)
   74    99           0.6775600648          18.4373469848    A2u        B1u (5)
   75    39           0.7048881675          19.1809824759    E1u        B2u (2)
   76    60           0.7048881685          19.1809825031    E1u        B3u (3)
   77    78           0.7389118614          20.1068142691    B2g        B1g (4)
   78   112           0.7396049640          20.1256745504    E1g        B3g (6)
   79   124           0.7396049652          20.1256745826    E1g        B2g (7)
   80    17           0.7650429943          20.8178785574    A1g         Ag (1)
   81    18           0.8306169848          22.6022375800    B1g         Ag (1)
   82    19           0.8365575725          22.7638891926    A1g         Ag (1)
   83   100           0.8386173966          22.8199398569    A2u        B1u (5)
   84   101           0.8810835274          23.9755020412    B2u        B1u (5)
   85    20           0.9334488596          25.4004351937    A1g         Ag (1)
   86   125           0.9529151809          25.9301407359    E1g        B2g (7)
   87   113           0.9529151816          25.9301407538    E1g        B3g (6)
   88    61           0.9598103653          26.1177682434    E1u        B3u (3)
   89    40           0.9598103669          26.1177682866    E1u        B2u (2)
   90   114           1.0545675092          28.6962412576    E1g        B3g (6)
   91   126           1.0545675118          28.6962413262    E1g        B2g (7)
   92   134           1.0887114103          29.6253440556    B1u         Au (8)
   93    79           1.1121030965          30.2618642061    A2g        B1g (4)
   94    80           1.1832721612          32.1984729410    B2g        B1g (4)
   95    62           1.1937680716          32.4840811877    E1u        B3u (3)
   96    41           1.1937680717          32.4840811900    E1u        B2u (2)
   97    42           1.2344564485          33.5912682289    E1u        B2u (2)
   98    63           1.2344564496          33.5912682586    E1u        B3u (3)
   99   135           1.2535898926          34.1119157194    A1u         Au (8)
  100    81           1.3072275831          35.5714715026    B2g        B1g (4)
  101    43           1.4269280428          38.8286866568    E1u        B2u (2)
  102    64           1.4269280473          38.8286867769    E1u        B3u (3)
  103    82           1.5524728916          42.2449357219    B2g        B1g (4)
  104   102           1.5606712064          42.4680232135    A2u        B1u (5)
  105    21           1.5980959955          43.4864035145    A1g         Ag (1)
  106   115           1.7418942785          47.3993537856    E1g        B3g (6)
  107   127           1.7418942796          47.3993538156    E1g        B2g (7)
  108   136           1.8222949001          49.5871659588    B1u         Au (8)
  109    22           1.8448557360          50.2010775236    B1g         Ag (1)
  110    65           1.9990726045          54.3975319233    E1u        B3u (3)
  111    44           1.9990726048          54.3975319318    E1u        B2u (2)
  112    23           2.1141475984          57.5288817517    A1g         Ag (1)
  113    83           2.1183287894          57.6426577454    A2g        B1g (4)
  114   103           2.2865856851          62.2211607141    A2u        B1u (5)
  115   104           2.3127261711          62.9324795105    B2u        B1u (5)
  116    24           2.3878879831          64.9777364269    A1g         Ag (1)
  117    25           2.3900118999          65.0355311420    B1g         Ag (1)
  118   116           2.4365454155          66.3017724962    E1g        B3g (6)
  119   128           2.4365454160          66.3017725093    E1g        B2g (7)
  120    26           2.5087501208          68.2665624452    A1g         Ag (1)
  121   105           2.5632504920          69.7495929627    A2u        B1u (5)
  122    45           2.5901135015          70.4805726254    E1u        B2u (2)
  123    66           2.5901135015          70.4805726265    E1u        B3u (3)
  124    27           2.6278927157          71.5085973229    A1g         Ag (1)
  125    46           2.7404516233          74.5714809607    E1u        B2u (2)
  126    67           2.7404516241          74.5714809836    E1u        B3u (3)
  127    47           2.8848632420          78.5011209457    E1u        B2u (2)
  128    68           2.8848632426          78.5011209620    E1u        B3u (3)
  129   117           2.9125958277          79.2557629797    E1g        B3g (6)
  130   129           2.9125958280          79.2557629879    E1g        B2g (7)
  131    84           2.9632643442          80.6345234302    B2g        B1g (4)
  132   137           3.0301306972          82.4540494245    A1u         Au (8)
  133   138           3.0338052584          82.5540393210    B1u         Au (8)
  134    85           3.3706621703          91.7203820414    B2g        B1g (4)
  135    86           3.5946533047          97.8154907724    A2g        B1g (4)
  136    48           3.6763642522         100.0389587278    E1u        B2u (2)
  137    69           3.6763642537         100.0389587682    E1u        B3u (3)
  138    87           4.0462960340         110.1053144280    B2g        B1g (4)


  VSCF finished.

  @CHECKOUT-I, Total execution time :       4.2200 seconds.
                2.88 seconds walltime passed
 --executable xvscf finished with status            0
 --invoking executable xvtran
  Partial RHF integral transformation
  Transformation of IIII integrals :
  1 pass through the AO integral file was required.
      147429 AO integrals were read.
       76200 MO integrals were written to HF2.
  Transformation of IIJJ integrals :
  1 pass through the AO integral file was required.
      773206 AO integrals were read.
      335346 MO integrals were written to HF2.
  Transformation of IJIJ integrals :
  1 pass through the AO integral file was required.
     1397388 AO integrals were read.
      618443 MO integrals were written to HF2.
  Transformation of IJKL integrals :
  1 pass through the AO integral file was required.
     3369467 AO integrals were read.
     1340591 MO integrals were written to HF2.
  Summary of active molecular orbitals: 
------------------------------------------------------------------------
 
  Index      Eigenvalue    Symmetry    Index      Eigenvalue    Symmetry
------------------------------------------------------------------------
     1       -15.5940196        1        70         1.4269280        3
     2        -2.4403598        1        71         1.9990726        3
     3        -1.4223706        1        72         2.5901135        3
     4        -0.6159029        1        73         2.7404516        3
     5        -0.5801384        1        74         2.8848632        3
     6       -15.5934906        2        75         3.6763643        3
     7        -1.0425189        2        76         0.1401673        4
     8        -0.3839441        2        77         0.2904544        4
     9       -15.5934906        3        78         0.3057403        4
    10        -1.0425189        3        79         0.4134915        4
    11        -0.3839441        3        80         0.5605395        4
    12       -15.5928089        4        81         0.6321876        4
    13        -0.6316515        4        82         0.7389119        4
    14        -2.4402548        5        83         1.1121031        4
    15        -0.6250269        5        84         1.1832722        4
    16        -0.3498249        6        85         1.3072276        4
    17        -0.3498249        7        86         1.5524729        4
    18         0.0054337        1        87         2.1183288        4
    19         0.0219526        1        88         2.9632643        4
    20         0.0458591        1        89         3.3706622        4
    21         0.0958597        1        90         3.5946533        4
    22         0.1949623        1        91         4.0462960        4
    23         0.1962912        1        92         0.0051349        5
    24         0.2539076        1        93         0.0216266        5
    25         0.2947247        1        94         0.0607232        5
    26         0.3200758        1        95         0.0985220        5
    27         0.4711723        1        96         0.2113327        5
    28         0.6083605        1        97         0.2357391        5
    29         0.7650430        1        98         0.2706862        5
    30         0.8306170        1        99         0.5624950        5
    31         0.8365576        1       100         0.5710876        5
    32         0.9334489        1       101         0.6775601        5
    33         1.5980960        1       102         0.8386174        5
    34         1.8448557        1       103         0.8810835        5
    35         2.1141476        1       104         1.5606712        5
    36         2.3878880        1       105         2.2865857        5
    37         2.3900119        1       106         2.3127262        5
    38         2.5087501        1       107         2.5632505        5
    39         2.6278927        1       108         0.0182413        6
    40         0.0153671        2       109         0.0744563        6
    41         0.0643407        2       110         0.2064542        6
    42         0.1775412        2       111         0.3061772        6
    43         0.1828279        2       112         0.4689725        6
    44         0.2504561        2       113         0.7396050        6
    45         0.3759506        2       114         0.9529152        6
    46         0.3817242        2       115         1.0545675        6
    47         0.5610568        2       116         1.7418943        6
    48         0.7048882        2       117         2.4365454        6
    49         0.9598104        2       118         2.9125958        6
    50         1.1937681        2       119         0.0182413        7
    51         1.2344564        2       120         0.0744563        7
    52         1.4269280        2       121         0.2064542        7
    53         1.9990726        2       122         0.3061772        7
    54         2.5901135        2       123         0.4689725        7
    55         2.7404516        2       124         0.7396050        7
    56         2.8848632        2       125         0.9529152        7
    57         3.6763643        2       126         1.0545675        7
    58         0.0153671        3       127         1.7418943        7
    59         0.0643407        3       128         2.4365454        7
    60         0.1775412        3       129         2.9125958        7
    61         0.1828279        3       130         0.1490072        8
    62         0.2504561        3       131         0.2600817        8
    63         0.3759506        3       132         0.3547949        8
    64         0.3817242        3       133         0.6769785        8
    65         0.5610568        3       134         1.0887114        8
    66         0.7048882        3       135         1.2535899        8
    67         0.9598104        3       136         1.8222949        8
    68         1.1937681        3       137         3.0301307        8
    69         1.2344564        3       138         3.0338053        8
------------------------------------------------------------------------
  @CHECKOUT-I, Total execution time :       5.2800 seconds.
                2.75 seconds walltime passed
 --executable xvtran finished with status            0
 --invoking executable xintprc
  @GMOIAA-I, Processing MO integrals for spin case AA.
  @GMOIAA-I, Generation of integral list completed.
                      TYPE                NUMBER
                      ----               --------
                      PPPP                     0
                      PPPH               1913128
                      PPHH                269702
                      PHPH                144813
                      PHHH                 41172
                      HHHH                  1765

                     TOTAL               2370580

  @FORMT2-I, Second-order MP correlation energies:
              ----------------------------------------------
              E(SCF)                = -232.648605428919 a.u.
              E2(AA)                =   -0.109068040045 a.u.
              E2(AB)                =   -0.560597931597 a.u.
              E2(TOT)               =   -0.778734011686 a.u.
              Total MP2 energy      = -233.427339440605 a.u.
              ----------------------------------------------
   Largest T2 amplitudes for spin case AB:
       _       _                 _       _                 _       _
   i   j   a   b             i   j   a   b             i   j   a   b
-----------------------------------------------------------------------------
[ 16  16 130 130]-0.06973 [ 17  17 130 130]-0.06973 [ 17  17 131 130]-0.03689
[ 17  17 130 131]-0.03689 [ 16  16 131 130]-0.03689 [ 16  16 130 131]-0.03689
[ 15  15 130 130]-0.02760 [  4   4  80  80]-0.02732 [ 16   4 130  63] 0.02398
[  4  16  63 130] 0.02398 [ 17   4 130  45]-0.02398 [  4  17  45 130]-0.02398
[ 11  17  80 130] 0.02392 [ 17  11 130  80] 0.02392 [ 16   8 130  80]-0.02392
-----------------------------------------------------------------------------
   Norm of T2AB vector (   537347 symmetry allowed elements):  0.4513216051.
-----------------------------------------------------------------------------
  @CHECKOUT-I, Total execution time :       0.8400 seconds.
                0.75 seconds walltime passed
 --executable xintprc finished with status            0
 --invoking executable xecc
 CCSD(T) energy will be calculated.
 AO based algorithm is used. 
 Largest T2 amplitudes for spin case AB:
        _       _                 _       _                 _       _
    i   j   a   b             i   j   a   b             i   j   a   b
 -----------------------------------------------------------------------------
 [ 16  16 130 130]-0.06973 [ 17  17 130 130]-0.06973 [ 17  17 131 130]-0.03689
 [ 17  17 130 131]-0.03689 [ 16  16 131 130]-0.03689 [ 16  16 130 131]-0.03689
 [ 15  15 130 130]-0.02760 [  4   4  80  80]-0.02732 [ 16   4 130  63] 0.02398
 [  4  16  63 130] 0.02398 [ 17   4 130  45]-0.02398 [  4  17  45 130]-0.02398
 [ 11  17  80 130] 0.02392 [ 17  11 130  80] 0.02392 [ 16   8 130  80]-0.02392
 -----------------------------------------------------------------------------
 Norm of T2AB vector (   537347 symmetry allowed elements):  0.4513216051.
 -----------------------------------------------------------------------------
 The total correlation energy is -0.778734011686 a.u.
 Resorts of amplitudes and integrals required   0.1 seconds.
 Starting iterative solution of the CC equations.
 The DIIS procedure is used to accelerate convergence.
 5 expansion vectors are used in the DIIS extrapolation.
 Convergence criterium is 10**(-7).
 Maximum number of iterations is  50.
 Iteration Nr. 1
 Generation of Intermediates required        0.9 seconds.
 Transformation of t(ab,ij) amplitudes required    0.1 seconds.
 Contraction of t(mu nu,ij) with AO integrals required    6.7 seconds.
 Backtransformation of t(mu nu,ij) increments required    0.1 seconds.
 Construction of Hbar(ab,ij) and Hbar(a,i) required   7.5 seconds.
 Amplitude changes are:
 -------------------------------------------------------------------
              Spin      RMS          Max.      Max. change for
  Amplitude   Case     Change       Change       i    j    a    b
 -------------------------------------------------------------------
     T1        AA    0.0001733542-0.0169245647   13        82
     T2        AB    0.0000001465 0.0140429432   16   16  130  130
 -------------------------------------------------------------------
 The total correlation energy is -0.727880320505 a.u.
 Convergence information after     1 iterations: 
 Largest element of residual vector : -0.16924565E-01.
 Largest element of DIIS residual   : -0.16924565E-01.
 CPU: This iteration required        8.5 seconds.
 Iteration Nr. 2
 Generation of Intermediates required        0.8 seconds.
 Transformation of t(ab,ij) amplitudes required    0.1 seconds.
 Contraction of t(mu nu,ij) with AO integrals required    6.8 seconds.
 Backtransformation of t(mu nu,ij) increments required    0.1 seconds.
 Construction of Hbar(ab,ij) and Hbar(a,i) required   7.5 seconds.
 Amplitude changes are:
 -------------------------------------------------------------------
              Spin      RMS          Max.      Max. change for
  Amplitude   Case     Change       Change       i    j    a    b
 -------------------------------------------------------------------
     T1        AA    0.0000264606 0.0018946449    8        45
     T2        AB    0.0000000685-0.0091514144   17   17  130  130
 -------------------------------------------------------------------
 The total correlation energy is -0.761990617438 a.u.
 Convergence information after     2 iterations: 
 Largest element of residual vector : -0.91514144E-02.
 Largest element of DIIS residual   : -0.44502905E-02.
 CPU: This iteration required        8.5 seconds.
 Iteration Nr. 3
 Generation of Intermediates required        0.9 seconds.
 Transformation of t(ab,ij) amplitudes required    0.1 seconds.
 Contraction of t(mu nu,ij) with AO integrals required    6.9 seconds.
 Backtransformation of t(mu nu,ij) increments required    0.1 seconds.
 Construction of Hbar(ab,ij) and Hbar(a,i) required   7.5 seconds.
 Amplitude changes are:
 -------------------------------------------------------------------
              Spin      RMS          Max.      Max. change for
  Amplitude   Case     Change       Change       i    j    a    b
 -------------------------------------------------------------------
     T1        AA    0.0000239711-0.0022544468    8        41
     T2        AB    0.0000000193-0.0012002577   17   17  130  130
 -------------------------------------------------------------------
 The total correlation energy is -0.758421288261 a.u.
 Convergence information after     3 iterations: 
 Largest element of residual vector : -0.22544468E-02.
 Largest element of DIIS residual   : -0.22763717E-02.
 CPU: This iteration required        8.8 seconds.
 Iteration Nr. 4
 Generation of Intermediates required        0.9 seconds.
 Transformation of t(ab,ij) amplitudes required    0.1 seconds.
 Contraction of t(mu nu,ij) with AO integrals required    6.7 seconds.
 Backtransformation of t(mu nu,ij) increments required    0.1 seconds.
 Construction of Hbar(ab,ij) and Hbar(a,i) required   7.4 seconds.
 Amplitude changes are:
 -------------------------------------------------------------------
              Spin      RMS          Max.      Max. change for
  Amplitude   Case     Change       Change       i    j    a    b
 -------------------------------------------------------------------
     T1        AA    0.0000066415 0.0008568939    8        45
     T2        AB    0.0000000055-0.0004122335   17   17  130  130
 -------------------------------------------------------------------
 The total correlation energy is -0.760887690951 a.u.
 Convergence information after     4 iterations: 
 Largest element of residual vector :  0.85689392E-03.
 Largest element of DIIS residual   :  0.75659554E-03.
 CPU: This iteration required        8.8 seconds.
 Iteration Nr. 5
 Generation of Intermediates required        0.8 seconds.
 Transformation of t(ab,ij) amplitudes required    0.1 seconds.
 Contraction of t(mu nu,ij) with AO integrals required    6.8 seconds.
 Backtransformation of t(mu nu,ij) increments required    0.1 seconds.
 Construction of Hbar(ab,ij) and Hbar(a,i) required   7.5 seconds.
 Amplitude changes are:
 -------------------------------------------------------------------
              Spin      RMS          Max.      Max. change for
  Amplitude   Case     Change       Change       i    j    a    b
 -------------------------------------------------------------------
     T1        AA    0.0000040968-0.0005897643    8        41
     T2        AB    0.0000000020-0.0001429733   17   17  130  130
 -------------------------------------------------------------------
 The total correlation energy is -0.761164600954 a.u.
 Convergence information after     5 iterations: 
 Largest element of residual vector : -0.58976431E-03.
 Largest element of DIIS residual   : -0.27547214E-03.
 Largest T1 amplitudes for spin case AA:
    i       a                 i       a                 i       a    
 -----------------------------------------------------------------------------
 [ 13      82    ]-0.02002 [ 17     127    ] 0.01405 [ 16     116    ] 0.01405
 [  8      41    ]-0.01369 [ 11      59    ]-0.01369 [  5      31    ] 0.01247
 [  4      37    ]-0.01234 [  5      21    ] 0.01214 [ 11      60    ] 0.01181
 [  8      42    ] 0.01181 [ 13      81    ] 0.01162 [  8      45    ] 0.01158
 [ 11      63    ] 0.01158 [  5      26    ]-0.01157 [ 11      65    ]-0.01134
 -----------------------------------------------------------------------------
 Norm of T1AA vector (      304 symmetry allowed elements):  0.0652811573.
 -----------------------------------------------------------------------------
 Largest T2 amplitudes for spin case AB:
        _       _                 _       _                 _       _
    i   j   a   b             i   j   a   b             i   j   a   b
 -----------------------------------------------------------------------------
 [ 17  17 130 130]-0.06579 [ 16  16 130 130]-0.06579 [ 17  17 131 130]-0.03548
 [ 17  17 130 131]-0.03548 [ 16  16 131 130]-0.03548 [ 16  16 130 131]-0.03548
 [  4   4  80  80]-0.02941 [ 11  11  80  80]-0.02276 [  8   8  80  80]-0.02276
 [ 17  11 130  80] 0.02077 [ 11  17  80 130] 0.02077 [ 16   8 130  80]-0.02077
 [  8  16  80 130]-0.02077 [ 13  13 130 130]-0.02022 [ 15   4 130  80] 0.02002
 -----------------------------------------------------------------------------
 Norm of T2AB vector (   537347 symmetry allowed elements):  0.4671775426.
 -----------------------------------------------------------------------------
 CPU: This iteration required        8.8 seconds.
 Iteration Nr. 6
 Generation of Intermediates required        0.9 seconds.
 Transformation of t(ab,ij) amplitudes required    0.1 seconds.
 Contraction of t(mu nu,ij) with AO integrals required    6.7 seconds.
 Backtransformation of t(mu nu,ij) increments required    0.1 seconds.
 Construction of Hbar(ab,ij) and Hbar(a,i) required   7.3 seconds.
 Amplitude changes are:
 -------------------------------------------------------------------
              Spin      RMS          Max.      Max. change for
  Amplitude   Case     Change       Change       i    j    a    b
 -------------------------------------------------------------------
     T1        AA    0.0000010858 0.0001420254   11        63
     T2        AB    0.0000000006-0.0000251176    8    8   41   41
 -------------------------------------------------------------------
 The total correlation energy is -0.761192923930 a.u.
 Convergence information after     6 iterations: 
 Largest element of residual vector :  0.14202544E-03.
 Largest element of DIIS residual   :  0.86727747E-04.
 CPU: This iteration required        8.7 seconds.
 Iteration Nr. 7
 Generation of Intermediates required        0.9 seconds.
 Transformation of t(ab,ij) amplitudes required    0.1 seconds.
 Contraction of t(mu nu,ij) with AO integrals required    6.8 seconds.
 Backtransformation of t(mu nu,ij) increments required    0.1 seconds.
 Construction of Hbar(ab,ij) and Hbar(a,i) required   7.6 seconds.
 Amplitude changes are:
 -------------------------------------------------------------------
              Spin      RMS          Max.      Max. change for
  Amplitude   Case     Change       Change       i    j    a    b
 -------------------------------------------------------------------
     T1        AA    0.0000004925 0.0000593128   11        63
     T2        AB    0.0000000002 0.0000138416   16   16  130  130
 -------------------------------------------------------------------
 The total correlation energy is -0.761193191110 a.u.
 Convergence information after     7 iterations: 
 Largest element of residual vector :  0.59312806E-04.
 Largest element of DIIS residual   :  0.51586372E-04.
 CPU: This iteration required        9.0 seconds.
 Iteration Nr. 8
 Generation of Intermediates required        0.8 seconds.
 Transformation of t(ab,ij) amplitudes required    0.1 seconds.
 Contraction of t(mu nu,ij) with AO integrals required    6.8 seconds.
 Backtransformation of t(mu nu,ij) increments required    0.1 seconds.
 Construction of Hbar(ab,ij) and Hbar(a,i) required   7.5 seconds.
 Amplitude changes are:
 -------------------------------------------------------------------
              Spin      RMS          Max.      Max. change for
  Amplitude   Case     Change       Change       i    j    a    b
 -------------------------------------------------------------------
     T1        AA    0.0000001851 0.0000226052   11        63
     T2        AB    0.0000000001-0.0000039489    8    8   20   20
 -------------------------------------------------------------------
 The total correlation energy is -0.761194757797 a.u.
 Convergence information after     8 iterations: 
 Largest element of residual vector :  0.22605235E-04.
 Largest element of DIIS residual   :  0.84927398E-05.
 CPU: This iteration required        8.9 seconds.
 Iteration Nr. 9
 Generation of Intermediates required        0.8 seconds.
 Transformation of t(ab,ij) amplitudes required    0.1 seconds.
 Contraction of t(mu nu,ij) with AO integrals required    6.7 seconds.
 Backtransformation of t(mu nu,ij) increments required    0.1 seconds.
 Construction of Hbar(ab,ij) and Hbar(a,i) required   7.4 seconds.
 Amplitude changes are:
 -------------------------------------------------------------------
              Spin      RMS          Max.      Max. change for
  Amplitude   Case     Change       Change       i    j    a    b
 -------------------------------------------------------------------
     T1        AA    0.0000000695 0.0000085182   11        63
     T2        AB    0.0000000000 0.0000032388   17   17  130  130
 -------------------------------------------------------------------
 The total correlation energy is -0.761191239544 a.u.
 Convergence information after     9 iterations: 
 Largest element of residual vector :  0.85182032E-05.
 Largest element of DIIS residual   :  0.46211630E-05.
 CPU: This iteration required        8.7 seconds.
 Iteration Nr. 10
 Generation of Intermediates required        0.9 seconds.
 Transformation of t(ab,ij) amplitudes required    0.1 seconds.
 Contraction of t(mu nu,ij) with AO integrals required    6.8 seconds.
 Backtransformation of t(mu nu,ij) increments required    0.1 seconds.
 Construction of Hbar(ab,ij) and Hbar(a,i) required   7.5 seconds.
 Amplitude changes are:
 -------------------------------------------------------------------
              Spin      RMS          Max.      Max. change for
  Amplitude   Case     Change       Change       i    j    a    b
 -------------------------------------------------------------------
     T1        AA    0.0000000275 0.0000030677    8        45
     T2        AB    0.0000000000-0.0000006910    8    8   18   18
 -------------------------------------------------------------------
 The total correlation energy is -0.761192601572 a.u.
 Convergence information after    10 iterations: 
 Largest element of residual vector :  0.30677463E-05.
 Largest element of DIIS residual   :  0.25127578E-05.
 Largest T1 amplitudes for spin case AA:
    i       a                 i       a                 i       a    
 -----------------------------------------------------------------------------
 [ 13      82    ]-0.02001 [ 17     127    ] 0.01406 [ 16     116    ] 0.01406
 [  8      41    ]-0.01391 [ 11      59    ]-0.01391 [  5      31    ] 0.01244
 [  4      37    ]-0.01234 [  5      21    ] 0.01223 [ 11      60    ] 0.01200
 [  8      42    ] 0.01200 [  8      45    ] 0.01193 [ 11      63    ] 0.01193
 [ 13      81    ] 0.01162 [  5      26    ]-0.01157 [ 11      65    ]-0.01146
 -----------------------------------------------------------------------------
 Norm of T1AA vector (      304 symmetry allowed elements):  0.0656781200.
 -----------------------------------------------------------------------------
 Largest T2 amplitudes for spin case AB:
        _       _                 _       _                 _       _
    i   j   a   b             i   j   a   b             i   j   a   b
 -----------------------------------------------------------------------------
 [ 17  17 130 130]-0.06578 [ 16  16 130 130]-0.06578 [ 17  17 131 130]-0.03548
 [ 17  17 130 131]-0.03548 [ 16  16 131 130]-0.03548 [ 16  16 130 131]-0.03548
 [  4   4  80  80]-0.02942 [ 11  11  80  80]-0.02277 [  8   8  80  80]-0.02277
 [ 17  11 130  80] 0.02080 [ 11  17  80 130] 0.02080 [ 16   8 130  80]-0.02080
 [  8  16  80 130]-0.02080 [ 13  13 130 130]-0.02020 [ 15   4 130  80] 0.02001
 -----------------------------------------------------------------------------
 Norm of T2AB vector (   537347 symmetry allowed elements):  0.4671153309.
 -----------------------------------------------------------------------------
 CPU: This iteration required        8.9 seconds.
 Iteration Nr. 11
 Generation of Intermediates required        0.9 seconds.
 Transformation of t(ab,ij) amplitudes required    0.1 seconds.
 Contraction of t(mu nu,ij) with AO integrals required    6.8 seconds.
 Backtransformation of t(mu nu,ij) increments required    0.1 seconds.
 Construction of Hbar(ab,ij) and Hbar(a,i) required   7.5 seconds.
 Amplitude changes are:
 -------------------------------------------------------------------
              Spin      RMS          Max.      Max. change for
  Amplitude   Case     Change       Change       i    j    a    b
 -------------------------------------------------------------------
     T1        AA    0.0000000103 0.0000011842   11        63
     T2        AB    0.0000000000 0.0000003800    8    8   18   18
 -------------------------------------------------------------------
 The total correlation energy is -0.761192953153 a.u.
 Convergence information after    11 iterations: 
 Largest element of residual vector :  0.11842200E-05.
 Largest element of DIIS residual   :  0.83534330E-06.
 CPU: This iteration required        8.9 seconds.
 Iteration Nr. 12
 Generation of Intermediates required        0.9 seconds.
 Transformation of t(ab,ij) amplitudes required    0.0 seconds.
 Contraction of t(mu nu,ij) with AO integrals required    6.8 seconds.
 Backtransformation of t(mu nu,ij) increments required    0.1 seconds.
 Construction of Hbar(ab,ij) and Hbar(a,i) required   7.5 seconds.
 Amplitude changes are:
 -------------------------------------------------------------------
              Spin      RMS          Max.      Max. change for
  Amplitude   Case     Change       Change       i    j    a    b
 -------------------------------------------------------------------
     T1        AA    0.0000000068 0.0000008449   11        63
     T2        AB    0.0000000000-0.0000001855    8    8   18   18
 -------------------------------------------------------------------
 The total correlation energy is -0.761193141596 a.u.
 Convergence information after    12 iterations: 
 Largest element of residual vector :  0.84487666E-06.
 Largest element of DIIS residual   :  0.58187654E-06.
 CPU: This iteration required        9.0 seconds.
 Iteration Nr. 13
 Generation of Intermediates required        0.8 seconds.
 Transformation of t(ab,ij) amplitudes required    0.1 seconds.
 Contraction of t(mu nu,ij) with AO integrals required    6.8 seconds.
 Backtransformation of t(mu nu,ij) increments required    0.1 seconds.
 Construction of Hbar(ab,ij) and Hbar(a,i) required   7.5 seconds.
 Amplitude changes are:
 -------------------------------------------------------------------
              Spin      RMS          Max.      Max. change for
  Amplitude   Case     Change       Change       i    j    a    b
 -------------------------------------------------------------------
     T1        AA    0.0000000017 0.0000002412   11        63
     T2        AB    0.0000000000-0.0000001189   17   17  130  130
 -------------------------------------------------------------------
 The total correlation energy is -0.761193318139 a.u.
 Convergence information after    13 iterations: 
 Largest element of residual vector :  0.24118561E-06.
 Largest element of DIIS residual   :  0.21719776E-06.
 CPU: This iteration required        8.8 seconds.
 Iteration Nr. 14
 Generation of Intermediates required        0.9 seconds.
 Transformation of t(ab,ij) amplitudes required    0.1 seconds.
 Contraction of t(mu nu,ij) with AO integrals required    6.8 seconds.
 Backtransformation of t(mu nu,ij) increments required    0.1 seconds.
 Construction of Hbar(ab,ij) and Hbar(a,i) required   7.6 seconds.
 Amplitude changes are:
 -------------------------------------------------------------------
              Spin      RMS          Max.      Max. change for
  Amplitude   Case     Change       Change       i    j    a    b
 -------------------------------------------------------------------
     T1        AA    0.0000000011 0.0000001279    8        45
     T2        AB    0.0000000000-0.0000000336    8    8   92   92
 -------------------------------------------------------------------
 The total correlation energy is -0.761193341283 a.u.
 Convergence information after    14 iterations: 
 Largest element of residual vector :  0.12788146E-06.
 Largest element of DIIS residual   :  0.75174688E-07.
 Amplitude equations converged in    14 iterations.
 The total correlation energy is -0.761193360121 a.u.
 Summary of iterative solution of CC equations 
 -----------------------------------------------------------
                 Correlation           Total
  Iteration        Energy              Energy
 -----------------------------------------------------------
      0     -0.7787340116859067  -233.427339440605   DIIS 
      1     -0.7278803205053948  -233.376485749424   DIIS 
      2     -0.7619906174378158  -233.410596046357   DIIS 
      3     -0.7584212882608572  -233.407026717180   DIIS 
      4     -0.7608876909510298  -233.409493119870   DIIS 
      5     -0.7611646009544395  -233.409770029873   DIIS 
      6     -0.7611929239302068  -233.409798352849   DIIS 
      7     -0.7611931911098107  -233.409798620029   DIIS 
      8     -0.7611947577974508  -233.409800186716   DIIS 
      9     -0.7611912395435567  -233.409796668463   DIIS 
     10     -0.7611926015719680  -233.409798030491   DIIS 
     11     -0.7611929531525518  -233.409798382072   DIIS 
     12     -0.7611931415960322  -233.409798570515   DIIS 
     13     -0.7611933181391749  -233.409798747058   DIIS 
     14     -0.7611933601213802  -233.409798789040   DIIS 
 -----------------------------------------------------------
 A miracle come to pass. The CC iterations have converged.
 
 
 
 Non-iterative perturbative treatment of triple
 excitations using the CCSD(T) method:
 
--------------------------------------------------------------------------------
  CCSD energy                             -233.409798789040
--------------------------------------------------------------------------------
  CCSD(T) energy                    -233.449896431235
--------------------------------------------------------------------------------
  @CHECKOUT-I, Total execution time :     275.5700 seconds.
              141.50 seconds walltime passed
 --executable xecc finished with status            0
 --invoking executable xlcc
 Lambda equations are solved for CCSD(T)
 AO based algorithm is used. 
 The total correlation energy is -0.761190114875 a.u.
 Starting iterative solution of the Lambda equations.
 The DIIS procedure is used to accelerate convergence.
 5 expansion vectors are used in the DIIS extrapolation.
 Convergence criterium is 10**(-7).
 Maximum number of iterations is  50.
 The total correlation energy is -0.820512415077 a.u.
 Convergence information after     1 iterations: 
 Largest element of residual vector : -0.22663311E-01.
 Largest element of DIIS residual   : -0.22663311E-01.
 The total correlation energy is -0.803422153474 a.u.
 Convergence information after     2 iterations: 
 Largest element of residual vector : -0.30592584E-02.
 Largest element of DIIS residual   : -0.22735979E-02.
 The total correlation energy is -0.807883265591 a.u.
 Convergence information after     3 iterations: 
 Largest element of residual vector : -0.17715392E-02.
 Largest element of DIIS residual   :  0.64647726E-03.
 The total correlation energy is -0.807641905094 a.u.
 Convergence information after     4 iterations: 
 Largest element of residual vector : -0.42423459E-03.
 Largest element of DIIS residual   : -0.28759838E-03.
 The total correlation energy is -0.807650191065 a.u.
 Convergence information after     5 iterations: 
 Largest element of residual vector : -0.77555447E-04.
 Largest element of DIIS residual   :  0.47281609E-04.
 The total correlation energy is -0.807682528961 a.u.
 Convergence information after     6 iterations: 
 Largest element of residual vector : -0.52052025E-04.
 Largest element of DIIS residual   : -0.23056937E-04.
 The total correlation energy is -0.807684031985 a.u.
[...]

 LI#1 y    0.043588
 N #2 z    0.104897    0.252427


           Symmetry 8

           N #2 z

 N #2 z    1.236626




           LI#1 x      LI#1 y      LI#1 z      LI#2 x      LI#2 y      LI#2 z

 LI#1 x    0.018460
 LI#1 y    0.000000    0.018460
 LI#1 z    0.000000    0.000000    0.106163

 LI#2 x   -0.003334    0.000000    0.000000    0.018460
 LI#2 y    0.000000   -0.003334    0.000000    0.000000    0.018460
 LI#2 z    0.000000    0.000000   -0.004440    0.000000    0.000000    0.106163

 N #1 x   -0.003782    0.009606   -0.007096   -0.003782    0.009606    0.007096
 N #1 y    0.009606   -0.003782    0.007096    0.009606   -0.003782   -0.007096
 N #1 z   -0.013112    0.013112   -0.025431    0.013112   -0.013112   -0.025431

 N #2 x   -0.003782   -0.009606    0.007096   -0.003782   -0.009606   -0.007096
 N #2 y   -0.009606   -0.003782    0.007096   -0.009606   -0.003782   -0.007096
 N #2 z    0.013112    0.013112   -0.025431   -0.013112   -0.013112   -0.025431

 N #3 x   -0.003782   -0.009606   -0.007096   -0.003782   -0.009606    0.007096
 N #3 y   -0.009606   -0.003782   -0.007096   -0.009606   -0.003782    0.007096
 N #3 z   -0.013112   -0.013112   -0.025431    0.013112    0.013112   -0.025431

 N #4 x   -0.003782    0.009606    0.007096   -0.003782    0.009606   -0.007096
 N #4 y    0.009606   -0.003782   -0.007096    0.009606   -0.003782    0.007096
 N #4 z    0.013112   -0.013112   -0.025431   -0.013112    0.013112   -0.025431


           N #1 x      N #1 y      N #1 z      N #2 x      N #2 y      N #2 z

 N #1 x    0.356525
 N #1 y   -0.090419    0.356525
 N #1 z    0.000000    0.000000    0.121558

 N #2 x   -0.183703   -0.088229    0.000000    0.356525
 N #2 y    0.088229   -0.010449    0.000000    0.090419    0.356525
 N #2 z    0.000000    0.000000   -0.064574    0.000000    0.000000    0.121558

 N #3 x   -0.010449    0.088229    0.000000   -0.154810   -0.071206    0.000000
 N #3 y   -0.088229   -0.183703    0.000000   -0.071206   -0.154810    0.000000
 N #3 z    0.000000    0.000000   -0.064574    0.000000    0.000000    0.058451

 N #4 x   -0.154810    0.071206    0.000000   -0.010449   -0.088229    0.000000
 N #4 y    0.071206   -0.154810    0.000000    0.088229   -0.183703    0.000000
 N #4 z    0.000000    0.000000    0.058451    0.000000    0.000000   -0.064574


           N #3 x      N #3 y      N #3 z      N #4 x      N #4 y      N #4 z

 N #3 x    0.356525
 N #3 y    0.090419    0.356525
 N #3 z    0.000000    0.000000    0.121558

 N #4 x   -0.183703    0.088229    0.000000    0.356525
 N #4 y   -0.088229   -0.010449    0.000000   -0.090419    0.356525
 N #4 z    0.000000    0.000000   -0.064574    0.000000    0.000000    0.121558




                           Total dipole moment
                           -------------------

                     All components zero by symmetry

  Conversion factor used: 1 a.u. =   2.54174691 Debye 



                     Total dipole moment derivatives
                     -------------------------------


           Symmetry 2
                              Ex

               LI#1 x     0.98889754
               N #2 x    -0.98889754
               N #2 y     1.49213875

           Symmetry 3
                              Ey

               LI#1 y     0.98889754
               N #2 x     1.49213870
               N #2 y    -0.98889754

           Symmetry 5
                              Ez

               LI#1 z     2.05326273
               N #2 z    -2.05326273



                       Ex          Ey          Ez

      LI#11   x    0.494449    0.000000    0.000000
      LI#11   y    0.000000    0.494449    0.000000
      LI#11   z    0.000000    0.000000    1.026631

      LI#12   x    0.494449    0.000000    0.000000
      LI#12   y    0.000000    0.494449    0.000000
      LI#12   z    0.000000    0.000000    1.026631

      N #21   x   -0.247224    0.373035    0.000000
      N #21   y    0.373035   -0.247224    0.000000
      N #21   z    0.000000    0.000000   -0.513316

      N #22   x   -0.247224   -0.373035    0.000000
      N #22   y   -0.373035   -0.247224    0.000000
      N #22   z    0.000000    0.000000   -0.513316

      N #23   x   -0.247224   -0.373035    0.000000
      N #23   y   -0.373035   -0.247224    0.000000
      N #23   z    0.000000    0.000000   -0.513316

      N #24   x   -0.247224    0.373035    0.000000
      N #24   y    0.373035   -0.247224    0.000000
      N #24   z    0.000000    0.000000   -0.513316

  @CHECKOUT-I, Total execution time :     135.6500 seconds.
               55.62 seconds walltime passed
 --executable xvdint finished with status            0
 --invoking executable xjoda
  masses used (in AMU) in vibrational analysis: 
   7.016003000     14.003074002     14.003074002
  14.003074002     14.003074002      7.016003000
 frequencies in cm**-1   1.68982378691131        1.68933336274591     
   1.66973691492863       2.348359439218194E-005  6.683472485955844E-006
  6.998862624373530E-006   248.331677787153        248.331679675970     
   448.522089029187        448.522091950252        640.206419539542     
   692.170055275422        763.803727079992        869.827497095308     
   869.827520643687        1127.19532509695        1129.58421270301     
   1148.84784970601     
 number of irreducible representations                     8
 number of irreducible representations                     8
 number of irreducible representations                     8
                     Normal Coordinate Analysis
  ----------------------------------------------------------------
    Irreducible         Harmonic       Infrared        Type 
   Representation       Frequency      Intensity 
  ----------------------------------------------------------------
                       (cm-1)         (km/mol)
  ----------------------------------------------------------------
      ----                 1.6898i        0.0000       ROTATION  
      ----                 1.6893i        0.0000       ROTATION  
      ----                 1.6697i        0.0000       ROTATION  
      ----                 0.0000i        0.0000      TRANSLATION
      ----                 0.0000i        0.0000      TRANSLATION
      ----                 0.0000         0.0000      TRANSLATION
        Eu               248.3317        70.9476       VIBRATION 
        Eu               248.3317        70.9476       VIBRATION 
        Eg               448.5221         0.0000       VIBRATION 
        Eg               448.5221         0.0000       VIBRATION 
       A1g               640.2064         0.0000       VIBRATION 
       A2u               692.1701       366.2727       VIBRATION 
       B1u               763.8037         0.0000       VIBRATION 
        Eu               869.8275        52.7639       VIBRATION 
        Eu               869.8275        52.7639       VIBRATION 
       A1g              1127.1953         0.0000       VIBRATION 
       B2g              1129.5842         0.0000       VIBRATION 
       B1g              1148.8478         0.0000       VIBRATION 
  ----------------------------------------------------------------
 
 
                                   Normal Coordinates 

                Eu                        Eu                        Eg
               248.33                    248.33                    448.52 
             VIBRATION                 VIBRATION                 VIBRATION 
 LI     0.628 0.0000  0.0000    0.0000  0.6280  0.0000    0.4517  0.0000  0.0000
 N     -0.222-0.0587  0.0000   -0.0587 -0.2222  0.0000    0.0000  0.0000 -0.3847
 N     -0.222 0.0587  0.0000    0.0587 -0.2222  0.0000    0.0000  0.0000  0.3847
 N     -0.222-0.0587  0.0000   -0.0587 -0.2222  0.0000    0.0000  0.0000  0.3847
 N     -0.222 0.0587  0.0000    0.0587 -0.2222  0.0000    0.0000  0.0000 -0.3847
 LI     0.628 0.0000  0.0000    0.0000  0.6280  0.0000   -0.4517  0.0000  0.0000

                Eg                       A1g                       A2u
               448.52                    640.21                    692.17 
             VIBRATION                 VIBRATION                 VIBRATION 
 LI     0.000 0.4517  0.0000    0.0000  0.0000  0.7043    0.0000  0.0000  0.6323
 N      0.000 0.0000  0.3847    0.0312 -0.0312  0.0000    0.0000  0.0000 -0.2238
 N      0.000 0.0000  0.3847   -0.0312 -0.0312  0.0000    0.0000  0.0000 -0.2238
 N      0.000 0.0000 -0.3847   -0.0312  0.0312  0.0000    0.0000  0.0000 -0.2238
 N      0.000 0.0000 -0.3847    0.0312  0.0312  0.0000    0.0000  0.0000 -0.2238
 LI     0.000-0.4517  0.0000    0.0000  0.0000 -0.7043    0.0000  0.0000  0.6323

               B1u                        Eu                        Eu
               763.80                    869.83                    869.83 
             VIBRATION                 VIBRATION                 VIBRATION 
 LI     0.000 0.0000  0.0000    0.0742  0.0000  0.0000    0.0000  0.0742  0.0000
 N      0.000 0.0000  0.5000   -0.0263  0.4965  0.0000    0.4965 -0.0263  0.0000
 N      0.000 0.0000 -0.5000   -0.0263 -0.4965  0.0000   -0.4965 -0.0263  0.0000
 N      0.000 0.0000  0.5000   -0.0263  0.4965  0.0000    0.4965 -0.0263  0.0000
 N      0.000 0.0000 -0.5000   -0.0263 -0.4965  0.0000   -0.4965 -0.0263  0.0000
 LI     0.000 0.0000  0.0000    0.0742  0.0000  0.0000    0.0000  0.0742  0.0000

               A1g                       B2g                       B1g
              1127.20                   1129.58                   1148.85 
             VIBRATION                 VIBRATION                 VIBRATION 
 LI     0.000 0.0000  0.0624    0.0000  0.0000  0.0000    0.0000  0.0000  0.0000
 N     -0.352 0.3522  0.0000    0.3536 -0.3536  0.0000    0.3536  0.3536  0.0000
 N      0.352 0.3522  0.0000    0.3536  0.3536  0.0000   -0.3536  0.3536  0.0000
 N      0.352-0.3522  0.0000   -0.3536  0.3536  0.0000   -0.3536 -0.3536  0.0000
 N     -0.352-0.3522  0.0000   -0.3536 -0.3536  0.0000    0.3536 -0.3536  0.0000
 LI     0.000 0.0000 -0.0624    0.0000  0.0000  0.0000    0.0000  0.0000  0.0000
            Gradient vector in normal coordinate representation
         ----------------------------------------------------------
   i    W(I)     dE/dQ(i)     dE/dq      dE/dq     [dE/dQ(i)]/w(i)
                              (cm-1)      (eV)        (relative)
         ----------------------------------------------------------
    7   248.33  0.0000000000      0.00000      0.00000   0.0000000000
    8   248.33  0.0000000000      0.00000      0.00000   0.0000000000
    9   448.52  0.0000000000      0.00000      0.00000   0.0000000000
   10   448.52  0.0000000000      0.00000      0.00000   0.0000000000
   11   640.21  0.0000000087      0.00082      0.00000   0.0000000000
   12   692.17  0.0000000000      0.00000      0.00000   0.0000000000
   13   763.80  0.0000000000      0.00000      0.00000   0.0000000000
   14   869.83  0.0000000000      0.00000      0.00000   0.0000000000
   15   869.83  0.0000000000      0.00000      0.00000   0.0000000000
   16  1127.20  0.0000000198      0.00142      0.00000   0.0000000001
   17  1129.58  0.0000000000      0.00000      0.00000   0.0000000000
   18  1148.85  0.0000000019      0.00014      0.00000   0.0000000000
         ----------------------------------------------------------
 
                      Normal modes in internal coordinates 
---------------------------------------------------------------------------
              1.690         1.689         1.670         0.000         0.000
---------------------------------------------------------------------------
r1         0.000000      0.000000      0.000000     -0.003133      0.016962
r2         0.000000      0.000000      0.000000     -0.078710      0.088669
a1         0.000001     -0.000001      0.000000      0.026145     -0.036564
r2         0.000000      0.000000      0.000000     -0.089842     -0.078274
a1         0.000000      0.000000      0.000000      0.089225     -0.005503
d1         0.000001      0.000001      0.000000      0.029608      0.015372
r2         0.000000      0.000000      0.000000      0.078710     -0.088669
a1         0.000000      0.000000      0.000000      0.005893      0.088373
d1        -0.000001      0.000001      0.000000     -0.022828      0.018605
r2         0.000000      0.000000      0.000000      0.089842      0.078274
a1         0.000000      0.000000      0.000000     -0.089225      0.005503
d1        -0.000001     -0.000001      0.000000     -0.026291     -0.033330
r1         0.000000      0.000000      0.000000      0.003133     -0.016962
a1        -0.000001      0.000001      0.000000      0.022828     -0.018605
d2         0.000000      0.000000      0.000000      0.055899      0.048702
---------------------------------------------------------------------------
              0.000       248.332       248.332       448.522       448.522
---------------------------------------------------------------------------
r1        -0.118233      0.000000      0.000000      0.000000      0.000000
r2         0.014806     -0.174254      0.166114      0.000000      0.000000
a1         0.057982     -0.294038      0.280302     -0.447214      0.447214
r2        -0.008849      0.174254      0.166114      0.000000      0.000000
a1        -0.003154      0.000000     -0.302078      0.000000      0.000000
d1         0.065341      0.294038      0.280302      0.447214      0.447214
r2        -0.014806      0.174254     -0.166114      0.000000      0.000000
a1         0.012522     -0.316882      0.000000      0.000000      0.000000
d1         0.067195      0.294038     -0.280302      0.447214     -0.447214
r2         0.008849     -0.174254     -0.166114      0.000000      0.000000
a1         0.003154      0.000000      0.302078      0.000000      0.000000
d1         0.059835     -0.294038     -0.280302     -0.447214     -0.447214
r1         0.118233      0.000000      0.000000      0.000000      0.000000
a1        -0.067195     -0.294038      0.280302      0.447214     -0.447214
d2         0.005506      0.588077      0.560604      0.000000      0.000000
---------------------------------------------------------------------------
            640.206       692.170       763.804       869.827       869.828
---------------------------------------------------------------------------
r1        -0.705720     -0.692057      0.000000      0.000000      0.000000
r2         0.031297      0.000000      0.000000     -0.449831      0.413487
a1         0.000000     -0.091776      0.447214     -0.028066      0.025798
r2         0.031297      0.000000      0.000000      0.449831      0.413487
a1         0.000000      0.000000      0.000000      0.000000      0.393780
d1         0.000000     -0.091776     -0.447214      0.028066      0.025798
r2         0.031297      0.000000      0.000000      0.449831     -0.413487
a1         0.000000      0.000000      0.000000      0.428392      0.000000
d1         0.000000     -0.091776      0.447214      0.028066     -0.025798
r2         0.031297      0.000000      0.000000     -0.449831     -0.413487
a1         0.000000      0.000000      0.000000      0.000000     -0.393780
d1         0.000000     -0.091776     -0.447214     -0.028066     -0.025798
r1        -0.705720      0.692057      0.000000      0.000000      0.000000
a1         0.000000      0.091776     -0.447214     -0.028066      0.025798
d2         0.000000      0.000000      0.000000      0.056132      0.051597
---------------------------------------------------------------------------
           1127.195      1129.584      1148.848
---------------------------------------------------------------------------
r1        -0.087827      0.000000      0.000000
r2        -0.496128      0.500000      0.000000
a1         0.000000      0.000000      0.000000
r2        -0.496128     -0.500000      0.000000
a1         0.000000      0.000000      0.577350
d1         0.000000      0.000000      0.000000
r2        -0.496128      0.500000      0.000000
a1         0.000000      0.000000     -0.577350
d1         0.000000      0.000000      0.000000
r2        -0.496128     -0.500000      0.000000
a1         0.000000      0.000000      0.577350
d1         0.000000      0.000000      0.000000
r1        -0.087827      0.000000      0.000000
a1         0.000000      0.000000      0.000000
d2         0.000000      0.000000      0.000000
---------------------------------------------------------------------------
 
  ----------------------------------------------------------------
                    Dipole Moment Function
                   (Normal Coordinate Basis)
  ----------------------------------------------------------------
    Mode     Symmetry    d(Mu(x))/dQ   d(Mu(y))/dQ   d(Mu(z))/dQ
  ----------------------------------------------------------------
     Q7          Eu        0.269772      0.000000      0.000000
     Q8          Eu        0.000000      0.269772      0.000000
     Q9          Eg        0.000000      0.000000      0.000000
     Q10         Eg        0.000000      0.000000      0.000000
     Q11        A1g        0.000000      0.000000      0.000000
     Q12        A2u        0.000000      0.000000      0.612956
     Q13        B1u        0.000000      0.000000      0.000000
     Q14         Eu        0.232646      0.000000      0.000000
     Q15         Eu        0.000000      0.232646      0.000000
     Q16        A1g        0.000000      0.000000      0.000000
     Q17        B2g        0.000000      0.000000      0.000000
     Q18        B1g        0.000000      0.000000      0.000000
  ----------------------------------------------------------------
---------------------------------------------------------------------------
------------------------------------------------------------
        Parameter                (MHz)                 (CM-1)
------------------------------------------------------------
 
           R6                0.236705E-05           0.789563E-10
           R5                -.220122E-10           -.734248E-15
           SI                            0.100000E+81
 
  A-reduced centrifugal distortion parameters 
 
           DJ                0.294893E-02           0.983657E-07
           DK                -.847647E-02           -.282745E-06
           DJK               0.814822E-02           0.271795E-06
           DELJ              0.294420E-02           0.982078E-07
           DELK              -.850015E-02           -.283534E-06
           DELJK             0.817663E-02           0.272743E-06
           delJ              0.307728E-12           0.102647E-16
           delK              -.946820E+75           -.315825E+71
 
  S-reduced centrifugal distortion parameters 
 
           DJ                0.294893E-02           0.983657E-07
           DK                -.847647E-02           -.282745E-06
           DJK               0.814822E-02           0.271795E-06
           D1                -.307728E-12           -.102647E-16
           D2                0.236705E-05           0.789563E-10
------------------------------------------------------------
   Vibrational frequencies after rotational projection  of 
   Cartesian force constants: 
            1           **********i
            2           **********i
            3           **********i
            4               0.0000 
            5               0.0000 
            6               0.0000 
            7             248.3317 
            8             248.3317 
            9             448.5221 
           10             448.5221 
           11             640.2064 
           12             692.1701 
           13             763.8037 
           14             869.8275 
           15             869.8275 
           16            1127.1953 
           17            1129.5842 
           18            1148.8478 
  Zero-point vibrational energy:   12.3446 kcal/mol =   51.6498 kJ/mol.
                0.25 seconds walltime passed
 --executable xjoda finished with status            0
