 --invoking executable xjoda
File JOBARC is /home/usc/qo/anv/n4li2/cc/n4li2_d4h_ccapVDZ.JOBARC.
File JAINDX is /home/usc/qo/anv/n4li2/cc/n4li2_d4h_ccapVDZ.JAINDX.
File OPTARC is /home/usc/qo/anv/n4li2/cc/n4li2_d4h_ccapVDZ.OPTARC.
File DIPDER is /home/usc/qo/anv/n4li2/cc/n4li2_d4h_ccapVDZ.DIPDER.
File FCMINT is /home/usc/qo/anv/n4li2/cc/n4li2_d4h_ccapVDZ.FCMINT.


   *************************************************************************
         <<<     CCCCCC     CCCCCC   |||     CCCCCC     CCCCCC   >>>
       <<<      CCC        CCC       |||    CCC        CCC         >>>
      <<<      CCC        CCC        |||   CCC        CCC            >>>
    <<<        CCC        CCC        |||   CCC        CCC              >>>
      <<<      CCC        CCC        |||   CCC        CCC            >>>
       <<<      CCC        CCC       |||    CCC        CCC         >>>
         <<<     CCCCCC     CCCCCC   |||     CCCCCC     CCCCCC   >>>
   *************************************************************************

     ****************************************************************
     * CFOUR Coupled-Cluster techniques for Computational Chemistry *
     ****************************************************************
 

   Department of Chemistry                Institut fuer Physikalische Chemie
   University of Texas at Austin          Universitaet Mainz
   Austin, TX  48792, USA                 D-55099 Mainz, Germany
 
                       version 1.2
 
                     cn010                                             
                     Fri Aug 21 20:02:20 CEST 2009                     
                     integer*8 version is running
 
    -------------------------------------------------------------------
                    Input from ZMAT file
    -------------------------------------------------------------------
 
 % JOBARC=/home/usc/qo/anv/n4li2/cc/n4li2_d4h_ccapVDZ.JOBARC                    
 % JAINDX=/home/usc/qo/anv/n4li2/cc/n4li2_d4h_ccapVDZ.JAINDX                    
 % OPTARC=/home/usc/qo/anv/n4li2/cc/n4li2_d4h_ccapVDZ.OPTARC                    
 % DIPDER=/home/usc/qo/anv/n4li2/cc/n4li2_d4h_ccapVDZ.DIPDER                    
 % FCMINT=/home/usc/qo/anv/n4li2/cc/n4li2_d4h_ccapVDZ.FCMINT                    
 N2Li4 d4h CCSD(T) full aug-cc-pVDZ (5d) optimization                           
 X                                                                              
 LI 1 r1*                                                                       
 N 1 r2* 2 a1                                                                   
 N 1 r2* 3 a1 2 d1                                                              
 N 1 r2* 4 a1 2 d1                                                              
 N 1 r2* 5 a1 2 d1                                                              
 LI 1 r1* 3 a1 2 d2                                                             
                                                                                
 r1=1.709                                                                       
 r2=0.985                                                                       
 a1=90.                                                                         
 d1=90.                                                                         
 d2=180.                                                                        
                                                                                
 *CFOUR(CALC=CCSD(T),BASIS=SPECIAL                                              
 MEMORY_SIZE=3,MEM_UNIT=GB                                                      
 ABCDTYPE=AOBASIS,CC_PROG=ECC)                                                  
                                                                                
 LI:aug-cc-pVDZ                                                                 
 N:aug-cc-pVDZ                                                                  
 N:aug-cc-pVDZ                                                                  
 N:aug-cc-pVDZ                                                                  
 N:aug-cc-pVDZ                                                                  
 LI:aug-cc-pVDZ                                                                 
                                                                                
                                                                                
                                                                                
                                                                                
 
    -------------------------------------------------------------------
                    CFOUR Control Parameters 
    -------------------------------------------------------------------
        External           Internal           Value            Units
          Name               Name
    -------------------------------------------------------------------
       PRINT                IPRNT               0               ***   
       CALCLEVEL            ICLLVL           CCSD(T)    [ 22]   ***   
       DERIV_LEV            IDRLVL            FIRST     [  1]   ***   
       CC_CONV              ICCCNV          10D-  7             ***   
       SCF_CONV             ISCFCV          10D-  7             ***   
       XFORM_TOL            IXFTOL          10D- 11             ***   
       CC_MAXCYC            ICCCYC             50              cycles 
       LINDEP_TOL           ILINDP              8               ***   
       RDO                  IRDOFM              ON      [  1]   ***   
  
       SCF_EXTRAPO          IRPP                ON      [  1]   ***   
       REFERENCE            IREFNC             RHF      [  0]   ***   
       CC_EXPORDER          ICCEOR              5               ***   
       TAMP_SUM             IEVERY              5               ***   
       NTOP_TAMP            ITOPT2             15               ***   
       CCORBOPT             ICCORB             OFF      [  0] x 0.01  
       SCF_MAXCYC           ISCFCY            150              cycles 
       OCCUPATION           IOCCU   ESTIMATED BY SCF 
       PROPS                IPROPS             OFF      [  0]   ***   
       RELAX_DENS           IRDENS              ON      [  1]   ***   
  
       SCF_EXPORDE          IRPPOR              6               ***   
       CC_EXTRAPOL          ICCEXT             DIIS     [  1]   ***   
       BRUECKNER            IBRKNR             OFF      [  0]   ***   
       XFIELD               IXEFLD              0             x 10-6  
       YFIELD               IYEFLD              0             x 10-6  
       ZFIELD               IZEFLD              0             x 10-6  
       SAVE_INTS            ISVINT             OFF      [  0]   ***   
       DROPMO               IDRPMO      NONE         
       CHARGE               ICHRGE              0               ***   
       MULTIPLICTY          IMULTP              1               ***   
  
       CPHF_CONVER          ICPHFT          10D- 16             ***   
       CPHF_MAXCYC          ICPHFC             64              cycles 
       INCORE               INCORE             OFF      [  0]   ***   
       MEMORY_SIZE          IMEMSZ         375000000           words  
       FILE_RECSIZ          IFLREC              4096           words  
       NON-HF               INONHF             OFF      [  0]   ***   
       ORBITALS             IORBTP           STANDARD   [  0]   ***   
  
       SCF_EXPSTAR          IRPPLS              8               ***   
       LOCK_ORBOCC          ILOCOC             OFF      [  0]   ***   
       HBAR                 IHBAR              OFF      [  0]   ***   
       CACHE_RECS           ICHREC             10               ***   
       GUESS                IGUESS            MOREAD    [  0]   ***   
       JODA_PRINT           IJPRNT              0               ***   
       GEO_METHOD           INR                NR       [  0]   ***   
       GEO_CONV             ICONTL              5              H/bohr 
       EIGENVECTOR          IVEC                1               ***   
  
       NEGEVAL              IDIE             ABORT      [  0]   ***   
       CURVILINEAR          ICURVY            OFF       [  0]   ***   
       SCALE_ON             ISTCRT              0               ***   
       GEO_MAXSTEP          IMXSTP            300            millibohr
       VIBRATION            IVIB              NO        [  0]   ***   
       EVAL_HESS            IRECAL              0            # of cyc.
       INTEGRALS            INTTYP             VMOL     [  1]   ***   
       FD_STEPSIZE          IDISFD              0            10-4 bohr
       POINTS               IGRDFD              0               ***   
       CONTRACTION          ICNTYP          GENERAL     [  1]   ***   
  
       SYMMETRY             ISYM             ON         [  0]   ***   
       BASIS                IBASIS         SPECIAL      [  0]   ***   
       SPHERICAL            IDFGHI             ON       [  1]   ***   
       RESET_FLAGS          IRESET             OFF      [  0]   ***   
       PERT_ORB             IPTORB         CANONICAL    [  1]   ***   
       GENBAS_1             IGNBS1              0               ***   
       GENBAS_2             IGNBS2              0               ***   
       GENBAS_3             IGNBS3              0               ***   
       COORDINATES          ICOORD         INTERNAL     [  0]   ***   
       SYM_CHECK            ISYMCK         OVERRIDE     [  1]   ***   
  
       SCF_PRINT            ISCFPR              0               ***   
       ECP                  IECP           OFF          [  0]   ***   
       RESTART_CC           ICCRES         OFF          [  0]   ***   
       TRANS_INV            ITRAIN         USE          [  0]   ***   
       HFSTABILITY          ISTABL         OFF          [  0]   ***   
       ROT_EVEC             ROTVEC              0               ***   
       BRUCK_CONV           IBRTOL          10D-  4             ***   
       UNITS                IUNITS         ANGSTROM     [  0]   ***   
       FD_USEGROUP          IFDGRP         FULL         [  0]   ***   
  
       FD_PROJECT           IFDPRJ         ON           [  0]   ***   
       FD_CALTYPE           IFDCAL         GRADONLY     [  0]   ***   
       VTRAN                IVTRAN         PARTIAL      [  2]   ***   
       HF2_FILE             IHF2Fl         USE          [  1]   ***   
       SUBGROUP             ISUBGP         DEFAULT      [  0]   ***   
       SUBGRPAXIS           ISBXYZ         X            [  0]   ***   
       EXCITE               IEXCIT         NONE         [  0]   ***   
       LINEQ_CONV           IZTACN          10D-  7           cycles  
  
       TREAT_PERT           ITREAT         SIMULTANEOUS [  0]   ***   
       ESTATE_PROP          IEXPRP         OFF          [  0]   ***   
       GEO_MAXCYC           IOPTCY             50               ***   
       ABCDTYPE             IABCDT         AOBASIS      [  2]   ***   
       AO_LADDERS           IAOLAD         SINGLEPASS   [  1]   ***   
       FOCK                 IFOCK          AO           [  1]   ***   
       ESTATE_MAXC          IEXMXC             20               ***   
       ESTATE_CONV          IEXTOL          10D-  5             ***   
       DIRECT               IDIRCT         OFF          [  0]   ***   
  
       GAMMA_ABCD           IGABCD         DIRECT       [  1]   ***   
       LINEQ_TYPE           ILTYPE         DIIS         [  1]   ***   
       LINEQ_MAXCY          ILMAXC             50               ***   
       TRANGRAD             IRESRM         OFF          [  0]   ***   
       PSI                  IPSI           OFF          [  0]   ***   
       GAMMA_ABCI           IGABCI         STORE        [  0]   ***   
       ESTATE_DIAG          IEXDIG         ITERATIVE    [  0]   ***   
       FC_FIELD             IFINFC              0             x 10-6  
       SD_FIELD             IFINSD              0             x 10-6  
       DIFF_TYPE            IDIFTY         RELAXED      [  0]   ***   
  
       LINEQ_EXPOR          ILMAXD              5               ***   
       FINITE_PERT          IFIPER              0             x 10-6  
       ANHARMONIC           IANHAR         OFF          [  0]   ***   
       CC_PROGRAM           ICCPRO         ECC          [  1]   ***   
       OPEN-SHELL           IOPEN          SPIN-ORBITAL [  0]   ***   
       UIJ_THRESHO          IUIJTH             25               ***   
       SCF_DAMPING          IDAMP               0             x 10-3  
       PROP_INTEGR          IINTYP         INTERNAL     [  0]   ***   
       ANH_SYMMETR          IANHSM         ABELIAN      [  0]   ***   
       ANH_ALGORIT          IANALG         STANDARD     [  0]   ***   
  
       EOM_NONIT            EOMNON         OFF          [  0]   ***   
       VIB_ALGORIT          IGEALG         STANDARD     [  0]   ***   
       ANH_DERIVAT          IANDER         SECOND       [  1]   ***   
       SPINROTATIO          ISRCON         OFF          [  0]   ***   
       CIS_CONV             ICISTL              5               ***   
       ANH_STEPSIZ          ICUBST             50000          x 10-6  
       SPIN_FLIP            ISPFLP         OFF          [  0]   ***   
       GRID                 IGRID          OFF          [  0]   ***   
  
       DBOC                 IDBOC          OFF          [  0]   ***   
       EOMFOLLOW            IEOMSR         ENERGY       [  0]   ***   
       T3_EXTRAPOL          IT3EXT         OFF          [  0]   ***   
       ESTATE_LOCK          IESLOC         OFF          [  0]   ***   
       UNOS                 IUNOS          OFF          [  0]   ***   
       FREQ_ALGORI          IVIALG         STANDARD     [  0]   ***   
       RELATIVIST           IRELAT         OFF          [  0]   ***   
       FROZEN_CORE          IFROCO         OFF          [  0]   ***   
       EXCITATION           IEXCIT              0               ***   
       INPUT_MRCC           IMRCC          ON           [  1]   ***   
  
       GIAO                 IGIAO          OFF          [  1]   ***   
       EOM_NSING            IEOMSI          10D-  0             ***   
       EOM_NTRIP            IEOMTR          10D-  0             ***   
       EOM_NSTATES          IMRCCD         DAVIDSON     [  0]   ***   
       DIAG_MRCC            IEOMST          10D-  0             ***   
       NEWNORM              INEWNO         OFF          [  0]   ***   
       TESTSUITE            ITESTS         OFF          [  0]   ***   
       BUFFERSIZE           IBUFFS            600               ***   
       SPINORBIT            ISOCAL         OFF          [  0]   ***   
       DCT                  IDCT           OFF          [  0]   ***   
  
       PARALLEL             IPARAL         ON           [  1]   ***   
       PARA_PRINT           IPPRIN              0               ***   
       COMM_SIZE            IPSIZE            ***               ***   
       PARA_INT             IPINTS         ON           [  1]   ***   
       RAMAN_INT            IRAMIN         OFF          [  0]   ***   
       RAMAN_ORB            IRAMRE         UNRELAXED    [  0]   ***   
       BREIT                IBREIT         OFF          [  0]   ***   
       MEM_UNIT             IMEMU          GB           [  3]   ***   
       SPIN_ORBIT           ISPORB         OFF          [  0]   ***   
       GENBAS_4             IGNBS4              0               ***   
  
       SPIN_SCAL            ISCSMP         OFF          [  0]   ***   
       GRID_ALGO            IGALGO         SERIAL       [  0]   ***   
       VIBPHASE             ISETPH         STANDARD     [  0]   ***   
       SEQUENCE             ISEQUE         OFF          [  0]   ***   
       HESS_TYPE            IHESTP         SCF          [  0]   ***   
       CONTINUUM            ICONTU         NONE         [  0]   ***   
       SCF_NOSTOP           ISCFST         OFF          [  0]   ***   
       CONSTANT             ICONST         OLD          [  1]   ***   
  
       EOM_MRCC             IMRCCE         OLD          [  0]   ***   
       EOM_ORDER            IEXORD         ENERGY       [  0]   ***   
       GIMIC                IGIMIC         OFF          [  0]   ***   
    -------------------------------------------------------------------
   7 entries found in Z-matrix 
   Job Title : N2Li4 d4h CCSD(T) full aug-cc-pVDZ (5d) optimization                            
   There are  5 unique internal coordinates.
   Of these,  2 will be optimized.
   User supplied Z-matrix: 
--------------------------------------------------------------------------------
       SYMBOL    BOND      LENGTH    ANGLE     ANGLE     DIHED     ANGLE
                  TO      (ANGST)    WRT      (DEG)      WRT      (DEG)
--------------------------------------------------------------------------------
        X    
        LI         1         r1   
        N          1         r2         2        a1   
        N          1         r2         3        a1         2        d1   
        N          1         r2         4        a1         2        d1   
        N          1         r2         5        a1         2        d1   
        LI         1         r1         3        a1         2        d2   
                  *Initial values for internal coordinates* 
                      Name             Value
                        r1              1.7090000000
                        r2              0.9850000000
                        a1             90.0000000000
                        d1             90.0000000000
                        d2            180.0000000000
--------------------------------------------------------------------------------
  1  X          0     0.00000
  2  LI         3     7.01600
  3  N          7    14.00307
  4  N          7    14.00307
  5  N          7    14.00307
  6  N          7    14.00307
  7  LI         3     7.01600
   Rotational constants (in cm-1): 
          0.2473415397             0.2473415397             0.3101992325
   Rotational constants (in MHz): 
       7415.1138532710          7415.1138532710          9299.5403402307
********************************************************************************
   The full molecular point group is D4h .
   The largest Abelian subgroup of the full molecular point group is D2h .
   The computational point group is D2h .
********************************************************************************
--------------------------------------------------------------------------------
   Analysis of internal coordinates specified by Z-matrix 
--------------------------------------------------------------------------------
   *The nuclear repulsion energy is  147.24472 a.u.
   *There are   2 degrees of freedom within the tot. symm. molecular subspace.
   *Z-matrix requests optimization of   2 coordinates.
   *The optimization is unconstrained and your Z-matrix is great.
--------------------------------------------------------------------------------
 ----------------------------------------------------------------
 Z-matrix   Atomic            Coordinates (in bohr)
  Symbol    Number           X              Y              Z
 ----------------------------------------------------------------
     X         0         0.00000000     0.00000000     0.00000000
     LI        3         0.00000000     0.00000000    -3.22954262
     N         7         1.31619486    -1.31619486     0.00000000
     N         7        -1.31619486    -1.31619486     0.00000000
     N         7        -1.31619486     1.31619486     0.00000000
     N         7         1.31619486     1.31619486     0.00000000
     LI        3         0.00000000     0.00000000     3.22954262
 ----------------------------------------------------------------
   Interatomic distance matrix (Angstroms) 
 
                 X             LI            N             N             N    
                [ 1]        [ 2]        [ 3]        [ 4]        [ 5]
  X    [ 1]     0.00000
  LI   [ 2]     1.70900     0.00000
  N    [ 3]     0.98500     1.97254     0.00000
  N    [ 4]     0.98500     1.97254     1.39300     0.00000
  N    [ 5]     0.98500     1.97254     1.97000     1.39300     0.00000
  N    [ 6]     0.98500     1.97254     1.39300     1.97000     1.39300
  LI   [ 7]     1.70900     3.41800     1.97254     1.97254     1.97254
 
                 N             LI   
                [ 6]        [ 7]
  N    [ 6]     0.00000
  LI   [ 7]     1.97254     0.00000
   Rotational constants (in cm-1): 
          0.2473415397             0.2473415397             0.3101992325
   Rotational constants (in MHz): 
       7415.1138532710          7415.1138532710          9299.5403402307
  There are  138 basis functions.
                0.50 seconds walltime passed
 --executable xjoda finished with status            0
  flag is                      0
 --invoking executable xvmol
 Serial version of molecule started
 
    -------------------------------------------------------------------
                    Input from MOL file
    -------------------------------------------------------------------
 INTGRL        1    0    1    0    0    0    0    0    0                        
          *** CFOUR Program System (Release V0.1) ***                           
 N2Li4 d4h CCSD(T) full aug-cc-pVDZ (5d) optimization                           
     2    3 X  Y   Z   0.10E-08              0    0                             
    9999.00      3.00                                                           
           3.00000000    1    3    1    1    1                                  
 LI#1      0.000000000000      0.000000000000     -3.229542623821               
    10    4                                                                     
    1469.00000000000       7.660000000000000E-004 -1.200000000000000E-004       
   0.000000000000000E+000  0.000000000000000E+000                               
    220.500000000000       5.892000000000000E-003 -9.230000000000000E-004       
   0.000000000000000E+000  0.000000000000000E+000                               
    50.2600000000000       2.967100000000000E-002 -4.689000000000000E-003       
   0.000000000000000E+000  0.000000000000000E+000                               
    14.2400000000000       0.109180000000000      -1.768200000000000E-002       
   0.000000000000000E+000  0.000000000000000E+000                               
    4.58100000000000       0.282789000000000      -4.890200000000000E-002       
   0.000000000000000E+000  0.000000000000000E+000                               
    1.58000000000000       0.453123000000000      -9.600900000000000E-002       
   0.000000000000000E+000  0.000000000000000E+000                               
   0.564000000000000       0.274774000000000      -0.136380000000000            
   0.000000000000000E+000  0.000000000000000E+000                               
   7.345000000000000E-002  9.750999999999999E-003  0.575102000000000            
   0.000000000000000E+000  0.000000000000000E+000                               
   2.805000000000000E-002  0.000000000000000E+000  0.000000000000000E+000       
    1.00000000000000       0.000000000000000E+000                               
   8.640000000000000E-003  0.000000000000000E+000  0.000000000000000E+000       
   0.000000000000000E+000   1.00000000000000                                    
     5    3                                                                     
    1.53400000000000       2.278400000000000E-002  0.000000000000000E+000       
   0.000000000000000E+000                                                       
   0.274900000000000       0.139107000000000       0.000000000000000E+000       
   0.000000000000000E+000                                                       
   7.362000000000000E-002  0.500375000000000       0.000000000000000E+000       
   0.000000000000000E+000                                                       
   2.403000000000000E-002  0.000000000000000E+000   1.00000000000000            
   0.000000000000000E+000                                                       
   5.790000000000000E-003  0.000000000000000E+000  0.000000000000000E+000       
    1.00000000000000                                                            
     2    2                                                                     
   0.123900000000000        1.00000000000000       0.000000000000000E+000       
   7.250000000000000E-002  0.000000000000000E+000   1.00000000000000            
           7.00000000    1    3    1    1    1                                  
 N #2      1.316194860792     -1.316194860792      0.000000000000               
    10    4                                                                     
    9046.00000000000       7.000000000000000E-004 -1.530000000000000E-004       
   0.000000000000000E+000  0.000000000000000E+000                               
    1357.00000000000       5.389000000000000E-003 -1.208000000000000E-003       
   0.000000000000000E+000  0.000000000000000E+000                               
    309.300000000000       2.740600000000000E-002 -5.992000000000000E-003       
   0.000000000000000E+000  0.000000000000000E+000                               
    87.7300000000000       0.103207000000000      -2.454400000000000E-002       
   0.000000000000000E+000  0.000000000000000E+000                               
    28.5600000000000       0.278723000000000      -6.745900000000001E-002       
   0.000000000000000E+000  0.000000000000000E+000                               
    10.2100000000000       0.448540000000000      -0.158078000000000            
   0.000000000000000E+000  0.000000000000000E+000                               
    3.83800000000000       0.278238000000000      -0.121831000000000            
   0.000000000000000E+000  0.000000000000000E+000                               
   0.746600000000000       1.544000000000000E-002  0.549003000000000            
   0.000000000000000E+000  0.000000000000000E+000                               
   0.224800000000000       0.000000000000000E+000  0.000000000000000E+000       
    1.00000000000000       0.000000000000000E+000                               
   6.124000000000000E-002  0.000000000000000E+000  0.000000000000000E+000       
   0.000000000000000E+000   1.00000000000000                                    
     5    3                                                                     
    13.5500000000000       3.991900000000000E-002  0.000000000000000E+000       
   0.000000000000000E+000                                                       
    2.91700000000000       0.217169000000000       0.000000000000000E+000       
   0.000000000000000E+000                                                       
   0.797300000000000       0.510319000000000       0.000000000000000E+000       
   0.000000000000000E+000                                                       
   0.218500000000000       0.000000000000000E+000   1.00000000000000            
   0.000000000000000E+000                                                       
   5.611000000000000E-002  0.000000000000000E+000  0.000000000000000E+000       
    1.00000000000000                                                            
     2    2                                                                     
   0.817000000000000        1.00000000000000       0.000000000000000E+000       
   0.230000000000000       0.000000000000000E+000   1.00000000000000            
 FINISH                                                                         
 
    -------------------------------------------------------------------
 
 One- and two-electron integrals over symmetry-adapted AOs are calculated.

  Spherical harmonics are used.
  
  Integrals less than  0.10E-13 are neglected.

   Basis function not normalized: 
   Center (as ordered in MOL file):   1
   Angular Momentum type          : s
   Offset within angular momentum :  2
   <chi|chi>                      :    1.8749330091
   Basis function not normalized: 
   Center (as ordered in MOL file):   1
   Angular Momentum type          : p
   Offset within angular momentum :  1
   <chi|chi>                      :    1.6680118081
   Basis function not normalized: 
   Center (as ordered in MOL file):   2
   Angular Momentum type          : s
   Offset within angular momentum :  2
   <chi|chi>                      :    1.9933993200
   Basis function not normalized: 
   Center (as ordered in MOL file):   2
   Angular Momentum type          : p
   Offset within angular momentum :  1
   <chi|chi>                      :    1.4756300702
  Nuclear repulsion energy :  147.2447222461 a.u.
  required memory for a1 array                3604880  words 
  required memory for a2 array                2070308  words 
 basis number:   3    25
 basis number:   7    25
  @MOLECU-I, One electron integrals required         0.16000 seconds.
  @TWOEL-I,     147421 integrals of symmetry type  I I I I
  @TWOEL-I,    1397401 integrals of symmetry type  I J I J
  @TWOEL-I,     773188 integrals of symmetry type  I I J J
  @TWOEL-I,    3369468 integrals of symmetry type  I J K L
  @TWOEL-I, Total number of 2-e integrals    5687478.
  @MOLECU-I, Two electron integrals required        18.31000 seconds.
  @CHECKOUT-I, Total execution time :      18.5400 seconds.
                7.50 seconds walltime passed
 --executable xvmol finished with status            0
 --invoking executable xvmol2ja
  @CHECKOUT-I, Total execution time :       0.0500 seconds.
                0.25 seconds walltime passed
 --executable xvmol2ja finished with status            0
 --invoking executable xvscf
 NSOSCF                     0
  There are  138 functions in the AO basis.

  There are 8 irreducible representations.

       Irrep        # of functions
         1                 27
         2                 21
         3                 21
         4                 18
         5                 18
         6                 12
         7                 12
         8                  9


  Parameters for SCF calculation: 
        SCF reference function:  RHF  
  Maximum number of iterations:  150
     Full symmetry point group: D4h 
     Computational point group: D2h 
        Initial density matrix: MOREAD                 
     SCF convergence tolerance: 10**(- 7)
  DIIS convergence acceleration:  ON
          Latest start for DIIS:   8
                     DIIS order:   6

  Memory information:     748289 words required.
  Fock matrices are constructed from AO integral file.
  Initialization and symmetry analysis required      0.000 seconds.

  @INITGES-I, Occupancies from core Hamiltonian:

          Alpha population by irrep:   4    3    3    3    1    1    1    1
           Beta population by irrep:   4    3    3    3    1    1    1    1


 total no. of electrons in initial guess :  0.000000000000000E+000
  --------------------------------------------------------------------
  Iteration         Total Energy            Largest Density Difference
  --------------------------------------------------------------------
       0           147.244722246148683              0.0000000000D+00
   current occupation vector 
     4  3  3  3  1  1  1  1
     4  3  3  3  1  1  1  1
       1          -190.838244960586337              0.2868327534D+01
   current occupation vector 
     4  3  3  3  1  1  1  1
     4  3  3  3  1  1  1  1
       2          -161.341068358762470              0.8244136388D+02
   current occupation vector 
     5  2  2  1  4  1  2  0
     5  2  2  1  4  1  2  0
       3          -197.437106862111193              0.8244255230D+02
   current occupation vector 
     4  3  3  3  1  1  1  1
     4  3  3  3  1  1  1  1
       4          -161.241709353186081              0.8323536818D+02
   current occupation vector 
     5  2  2  1  4  1  2  0
     5  2  2  1  4  1  2  0
       5          -197.440205269759417              0.8323535818D+02
   current occupation vector 
     4  3  3  3  1  1  1  1
     4  3  3  3  1  1  1  1
       6          -161.238277025474758              0.8325693491D+02
   current occupation vector 
     5  2  2  1  4  1  2  0
     5  2  2  1  4  1  2  0
       7          -197.440143743104670              0.8325693463D+02
   current occupation vector 
     4  3  3  3  1  1  1  1
     4  3  3  3  1  1  1  1
       8          -161.238189084311387              0.8325742421D+02
   current occupation vector 
     5  2  2  1  4  1  2  0
     5  2  2  1  4  1  2  0
       9          -220.608577965979009              0.8322117000D+02
   current occupation vector 
     5  3  3  2  2  1  1  0
     5  3  3  2  2  1  1  0
      10          -222.639782136625001              0.3186020462D+00
   current occupation vector 
     5  3  3  2  2  1  1  0
     5  3  3  2  2  1  1  0
      11          -224.898741070496669              0.2122808218D+00
   current occupation vector 
     5  3  3  2  2  1  1  0
     5  3  3  2  2  1  1  0
      12          -225.840515738844203              0.1019513045D+00
   current occupation vector 
     5  3  3  2  2  1  1  0
     5  3  3  2  2  1  1  0
      13          -228.418765887338338              0.2242762525D+00
   current occupation vector 
     5  3  3  2  2  1  1  0
     5  3  3  2  2  1  1  0
      14          -230.325387820629828              0.2495066640D+00
   current occupation vector 
     5  3  3  2  2  1  1  0
     5  3  3  2  2  1  1  0
      15          -232.456098484871745              0.5760675865D+00
   current occupation vector 
     5  3  3  2  2  1  1  0
     5  3  3  2  2  1  1  0
      16          -232.648206250664998              0.1274080136D+00
   current occupation vector 
     5  3  3  2  2  1  1  0
     5  3  3  2  2  1  1  0
      17          -232.654175458691725              0.6009466459D-01
   current occupation vector 
     5  3  3  2  2  1  1  0
     5  3  3  2  2  1  1  0
      18          -232.655033524220642              0.1164135831D-01
   current occupation vector 
     5  3  3  2  2  1  1  0
     5  3  3  2  2  1  1  0
      19          -232.655083187525747              0.3795164118D-02
   current occupation vector 
     5  3  3  2  2  1  1  0
     5  3  3  2  2  1  1  0
      20          -232.655084235098116              0.6920952066D-03
   current occupation vector 
     5  3  3  2  2  1  1  0
     5  3  3  2  2  1  1  0
      21          -232.655084271631381              0.9643626653D-04
   current occupation vector 
     5  3  3  2  2  1  1  0
     5  3  3  2  2  1  1  0
      22          -232.655084272257909              0.1327384783D-04
   current occupation vector 
     5  3  3  2  2  1  1  0
     5  3  3  2  2  1  1  0
      23          -232.655084272299746              0.3807604133D-05
   current occupation vector 
     5  3  3  2  2  1  1  0
     5  3  3  2  2  1  1  0
      24          -232.655084272300883              0.4800192894D-06
   current occupation vector 
     5  3  3  2  2  1  1  0
     5  3  3  2  2  1  1  0
      25          -232.655084272301451              0.1939547545D-06
   current occupation vector 
     5  3  3  2  2  1  1  0
     5  3  3  2  2  1  1  0

  SCF has converged.

 save density matrix on hard disk
 total electron number:   34.0000000000000     
     E(SCF)=      -232.655084272300940              0.2289786807D-07


  Final occupancies:

     Alpha population by irrep:   5    3    3    2    2    1    1    0
      Beta population by irrep:   5    3    3    2    2    1    1    0


  Eigenvector printing suppressed.

 @PUTMOS-I, Writing converged MOs to NEWMOS. 
 @PUTMOS-I, Symmetry   1 Full   6 Partial   3
 @PUTMOS-I, Symmetry   2 Full   5 Partial   1
 @PUTMOS-I, Symmetry   3 Full   5 Partial   1
 @PUTMOS-I, Symmetry   4 Full   4 Partial   2
 @PUTMOS-I, Symmetry   5 Full   4 Partial   2
 @PUTMOS-I, Symmetry   6 Full   3 Partial   0
 @PUTMOS-I, Symmetry   7 Full   3 Partial   0
 @PUTMOS-I, Symmetry   8 Full   2 Partial   1


 
  ORBITAL EIGENVALUES (ALPHA)  (1H = 27.2113838 eV)

       MO #        E(hartree)               E(eV)           FULLSYM    COMPSYM
       ----   --------------------   --------------------   -------   ---------
    1     1         -15.5880443549        -424.1722579380    A1g         Ag (1)
    2    49         -15.5874742599        -424.1567448650    E1u        B3u (3)
    3    28         -15.5874742599        -424.1567448650    E1u        B2u (2)
    4    70         -15.5867477708        -424.1369760900    B2g        B1g (4)
    5     2          -2.4416343403         -66.4402491811    A1g         Ag (1)
    6    88          -2.4415334374         -66.4375034740    A2u        B1u (5)
    7     3          -1.4416503609         -39.2293013049    A1g         Ag (1)
    8    29          -1.0475633612         -28.5056486969    E1u        B2u (2)
    9    50          -1.0475633586         -28.5056486274    E1u        B3u (3)
   10    89          -0.6344205123         -17.2634600637    A2u        B1u (5)
   11     4          -0.6259331908         -17.0325082997    B1g         Ag (1)
   12    71          -0.6213749252         -16.9084715849    B2g        B1g (4)
   13     5          -0.5853880835         -15.9292198241    A1g         Ag (1)
   14    30          -0.3828459651         -10.4177684994    E1u        B2u (2)
   15    51          -0.3828459622         -10.4177684209    E1u        B3u (3)
   16   106          -0.3489193133          -9.4945773572    E1g        B3g (6)
   17   118          -0.3489193119          -9.4945773178    E1g        B2g (7)
  +++++++++++++++++++++++++++++++++++++++++++++++++++++++++++++++++++++++++++++
   18    90           0.0050404186           0.1371567648    A2u        B1u (5)
   19     6           0.0053302178           0.1450426030    A1g         Ag (1)
   20    31           0.0153881429           0.4187326616    E1u        B2u (2)
   21    52           0.0153881430           0.4187326650    E1u        B3u (3)
   22   107           0.0182286669           0.4960272518    E1g        B3g (6)
   23   119           0.0182286670           0.4960272532    E1g        B2g (7)
   24    91           0.0214525596           0.5837538325    A2u        B1u (5)
   25     7           0.0219035359           0.5960255234    A1g         Ag (1)
   26     8           0.0457463814           1.2448223414    A1g         Ag (1)
   27    92           0.0605825146           1.6485340584    A2u        B1u (5)
   28    32           0.0643816074           1.7519126288    E1u        B2u (2)
   29    53           0.0643816078           1.7519126419    E1u        B3u (3)
   30   108           0.0743473968           2.0230955507    E1g        B3g (6)
   31   120           0.0743473970           2.0230955570    E1g        B2g (7)
   32     9           0.0956956846           2.6040120047    A1g         Ag (1)
   33    93           0.0982153703           2.6725761378    A2u        B1u (5)
   34    72           0.1405728227           3.8251810341    B2g        B1g (4)
   35   130           0.1579692863           4.2985628809    B1u         Au (8)
   36    33           0.1774583346           4.8288868557    E1u        B2u (2)
   37    54           0.1774583352           4.8288868712    E1u        B3u (3)
   38    34           0.1836518356           4.9974205870    E1u        B2u (2)
   39    55           0.1836518371           4.9974206279    E1u        B3u (3)
   40    10           0.1947954129           5.3006527464    A1g         Ag (1)
   41    11           0.1963483976           5.3429116100    B1g         Ag (1)
   42   109           0.2058968136           5.6027372220    E1g        B3g (6)
   43   121           0.2058968138           5.6027372280    E1g        B2g (7)
   44    94           0.2112861222           5.7493877672    A2u        B1u (5)
   45    95           0.2356961285           6.4136178180    B2u        B1u (5)
   46    56           0.2515055059           6.8438128537    E1u        B3u (3)
   47    35           0.2515055063           6.8438128660    E1u        B2u (2)
   48    12           0.2534421319           6.8965111279    A1g         Ag (1)
   49   131           0.2638984237           7.1810412959    B1u         Au (8)
   50    96           0.2693902141           7.3304805125    A2u        B1u (5)
   51    73           0.2902096279           7.8970055738    B2g        B1g (4)
   52    13           0.2946675100           8.0183107145    B1g         Ag (1)
   53   110           0.3061710816           8.3313388148    E1g        B3g (6)
   54   122           0.3061710822           8.3313388322    E1g        B2g (7)
   55    74           0.3068504840           8.3498262944    A2g        B1g (4)
   56    14           0.3195520671           8.6954539486    A1g         Ag (1)
   57   132           0.3546685690           9.6510225589    B1u         Au (8)
   58    36           0.3783086077          10.2943007265    E1u        B2u (2)
   59    57           0.3783086082          10.2943007408    E1u        B3u (3)
   60    37           0.3895484580          10.6001526076    E1u        B2u (2)
   61    58           0.3895484594          10.6001526450    E1u        B3u (3)
   62    75           0.4154375816          11.3046314852    B2g        B1g (4)
   63    15           0.4684771630          12.7479118932    A1g         Ag (1)
   64   111           0.4689913305          12.7619031016    E1g        B3g (6)
   65   123           0.4689913307          12.7619031083    E1g        B2g (7)
   66    97           0.5629087830          15.3175269485    B2u        B1u (5)
   67    59           0.5641576082          15.3515092113    E1u        B3u (3)
   68    38           0.5641576084          15.3515092166    E1u        B2u (2)
   69    98           0.5676475706          15.4464759170    A2u        B1u (5)
   70    76           0.5810598478          15.8114425401    A2g        B1g (4)
   71    16           0.6064058956          16.5011435744    B1g         Ag (1)
   72    77           0.6361352576          17.3101206556    B2g        B1g (4)
   73   133           0.6759835120          18.3944468017    B1u         Au (8)
   74    99           0.6782193161          18.4552861243    A2u        B1u (5)
   75    39           0.7029305898          19.1277140781    E1u        B2u (2)
   76    60           0.7029305901          19.1277140850    E1u        B3u (3)
   77   112           0.7382029095          20.0875227077    E1g        B3g (6)
   78   124           0.7382029102          20.0875227267    E1g        B2g (7)
   79    17           0.7606943964          20.6995471911    A1g         Ag (1)
   80    78           0.7673304882          20.8801244306    B2g        B1g (4)
   81    18           0.8302928839          22.5934183471    B1g         Ag (1)
   82   100           0.8446212201          22.9833122030    A2u        B1u (5)
   83    19           0.8449354457          22.9918627155    A1g         Ag (1)
   84   101           0.8827945130          24.0220603276    B2u        B1u (5)
   85    20           0.9322166245          25.3669043722    A1g         Ag (1)
   86   125           0.9583118871          26.0769925799    E1g        B2g (7)
   87   113           0.9583118875          26.0769925905    E1g        B3g (6)
   88    61           0.9659693185          26.2853618843    E1u        B3u (3)
   89    40           0.9659693188          26.2853618917    E1u        B2u (2)
   90   114           1.0578963116          28.7868225770    E1g        B3g (6)
   91   126           1.0578963144          28.7868226517    E1g        B2g (7)
   92   134           1.0935286104          29.7564267356    B1u         Au (8)
   93    79           1.1210544172          30.5054420280    A2g        B1g (4)
   94    80           1.1826442316          32.1813861076    B2g        B1g (4)
   95    41           1.2020766961          32.7101703570    E1u        B2u (2)
   96    62           1.2020766965          32.7101703692    E1u        B3u (3)
   97    42           1.2303197275          33.4787023256    E1u        B2u (2)
   98    63           1.2303197285          33.4787023536    E1u        B3u (3)
   99   135           1.2610502574          34.3149225706    A1u         Au (8)
  100    81           1.3149357470          35.7812213106    B2g        B1g (4)
  101    43           1.4263995875          38.8143066558    E1u        B2u (2)
  102    64           1.4263995895          38.8143067102    E1u        B3u (3)
  103    82           1.5579197453          42.3931521498    B2g        B1g (4)
  104   102           1.5636717997          42.5496735088    A2u        B1u (5)
  105    21           1.6115932000          43.8536811252    A1g         Ag (1)
  106   115           1.7493010272          47.6009016659    E1g        B3g (6)
  107   127           1.7493010277          47.6009016812    E1g        B2g (7)
  108   136           1.8233633608          49.6162402545    B1u         Au (8)
  109    22           1.8428848123          50.1474459626    B1g         Ag (1)
  110    44           1.9960671421          54.3157491331    E1u        B2u (2)
  111    65           1.9960671421          54.3157491341    E1u        B3u (3)
  112    23           2.0928746275          56.9500147748    A1g         Ag (1)
  113    83           2.1140268852          57.5255969775    A2g        B1g (4)
  114   103           2.2735800396          61.8672591010    A2u        B1u (5)
  115   104           2.2989108380          62.5565451788    B2u        B1u (5)
  116    24           2.3894170818          65.0193453190    A1g         Ag (1)
  117    25           2.4266198187          66.0316832717    B1g         Ag (1)
  118   128           2.4290441684          66.0976531823    E1g        B2g (7)
  119   116           2.4290441686          66.0976531860    E1g        B3g (6)
  120    26           2.4873676233          67.6847150992    A1g         Ag (1)
  121   105           2.5596110455          69.6505585878    A2u        B1u (5)
  122    66           2.6078785866          70.9639851752    E1u        B3u (3)
  123    45           2.6078785867          70.9639851763    E1u        B2u (2)
  124    27           2.6592920447          72.3630165165    A1g         Ag (1)
  125    46           2.7600952720          75.1060118255    E1u        B2u (2)
  126    67           2.7600952723          75.1060118329    E1u        B3u (3)
  127   117           2.9288340753          79.6976281659    E1g        B3g (6)
  128   129           2.9288340764          79.6976281960    E1g        B2g (7)
  129    47           2.9361244013          79.8960080263    E1u        B2u (2)
  130    68           2.9361244019          79.8960080411    E1u        B3u (3)
  131    84           2.9836289688          81.1886730439    B2g        B1g (4)
  132   137           3.0571212638          83.1885000928    A1u         Au (8)
  133   138           3.0614033288          83.3050210054    B1u         Au (8)
  134    85           3.4044142909          92.6388239506    B2g        B1g (4)
  135    86           3.6037056545          98.0618177361    A2g        B1g (4)
  136    48           3.6919139651         100.4620879332    E1u        B2u (2)
  137    69           3.6919139673         100.4620879942    E1u        B3u (3)
  138    87           4.0242116576         109.5043679873    B2g        B1g (4)


  VSCF finished.

  @CHECKOUT-I, Total execution time :       4.1000 seconds.
                2.50 seconds walltime passed
 --executable xvscf finished with status            0
 --invoking executable xvtran
  Partial RHF integral transformation
  Transformation of IIII integrals :
  1 pass through the AO integral file was required.
      147421 AO integrals were read.
       76200 MO integrals were written to HF2.
  Transformation of IIJJ integrals :
  1 pass through the AO integral file was required.
      773188 AO integrals were read.
      335346 MO integrals were written to HF2.
  Transformation of IJIJ integrals :
  1 pass through the AO integral file was required.
     1397401 AO integrals were read.
      618441 MO integrals were written to HF2.
  Transformation of IJKL integrals :
  1 pass through the AO integral file was required.
     3369468 AO integrals were read.
     1340591 MO integrals were written to HF2.
  Summary of active molecular orbitals: 
------------------------------------------------------------------------
 
  Index      Eigenvalue    Symmetry    Index      Eigenvalue    Symmetry
------------------------------------------------------------------------
     1       -15.5880444        1        70         1.4263996        3
     2        -2.4416343        1        71         1.9960671        3
     3        -1.4416504        1        72         2.6078786        3
     4        -0.6259332        1        73         2.7600953        3
     5        -0.5853881        1        74         2.9361244        3
     6       -15.5874743        2        75         3.6919140        3
     7        -1.0475634        2        76         0.1405728        4
     8        -0.3828460        2        77         0.2902096        4
     9       -15.5874743        3        78         0.3068505        4
    10        -1.0475634        3        79         0.4154376        4
    11        -0.3828460        3        80         0.5810598        4
    12       -15.5867478        4        81         0.6361353        4
    13        -0.6213749        4        82         0.7673305        4
    14        -2.4415334        5        83         1.1210544        4
    15        -0.6344205        5        84         1.1826442        4
    16        -0.3489193        6        85         1.3149357        4
    17        -0.3489193        7        86         1.5579197        4
    18         0.0053302        1        87         2.1140269        4
    19         0.0219035        1        88         2.9836290        4
    20         0.0457464        1        89         3.4044143        4
    21         0.0956957        1        90         3.6037057        4
    22         0.1947954        1        91         4.0242117        4
    23         0.1963484        1        92         0.0050404        5
    24         0.2534421        1        93         0.0214526        5
    25         0.2946675        1        94         0.0605825        5
    26         0.3195521        1        95         0.0982154        5
    27         0.4684772        1        96         0.2112861        5
    28         0.6064059        1        97         0.2356961        5
    29         0.7606944        1        98         0.2693902        5
    30         0.8302929        1        99         0.5629088        5
    31         0.8449354        1       100         0.5676476        5
    32         0.9322166        1       101         0.6782193        5
    33         1.6115932        1       102         0.8446212        5
    34         1.8428848        1       103         0.8827945        5
    35         2.0928746        1       104         1.5636718        5
    36         2.3894171        1       105         2.2735800        5
    37         2.4266198        1       106         2.2989108        5
    38         2.4873676        1       107         2.5596110        5
    39         2.6592920        1       108         0.0182287        6
    40         0.0153881        2       109         0.0743474        6
    41         0.0643816        2       110         0.2058968        6
    42         0.1774583        2       111         0.3061711        6
    43         0.1836518        2       112         0.4689913        6
    44         0.2515055        2       113         0.7382029        6
    45         0.3783086        2       114         0.9583119        6
    46         0.3895485        2       115         1.0578963        6
    47         0.5641576        2       116         1.7493010        6
    48         0.7029306        2       117         2.4290442        6
    49         0.9659693        2       118         2.9288341        6
    50         1.2020767        2       119         0.0182287        7
    51         1.2303197        2       120         0.0743474        7
    52         1.4263996        2       121         0.2058968        7
    53         1.9960671        2       122         0.3061711        7
    54         2.6078786        2       123         0.4689913        7
    55         2.7600953        2       124         0.7382029        7
    56         2.9361244        2       125         0.9583119        7
    57         3.6919140        2       126         1.0578963        7
    58         0.0153881        3       127         1.7493010        7
    59         0.0643816        3       128         2.4290442        7
    60         0.1774583        3       129         2.9288341        7
    61         0.1836518        3       130         0.1579693        8
    62         0.2515055        3       131         0.2638984        8
    63         0.3783086        3       132         0.3546686        8
    64         0.3895485        3       133         0.6759835        8
    65         0.5641576        3       134         1.0935286        8
    66         0.7029306        3       135         1.2610503        8
    67         0.9659693        3       136         1.8233634        8
    68         1.2020767        3       137         3.0571213        8
    69         1.2303197        3       138         3.0614033        8
------------------------------------------------------------------------
  @CHECKOUT-I, Total execution time :       5.3900 seconds.
                2.75 seconds walltime passed
 --executable xvtran finished with status            0
 --invoking executable xintprc
  @GMOIAA-I, Processing MO integrals for spin case AA.
  @GMOIAA-I, Generation of integral list completed.
                      TYPE                NUMBER
                      ----               --------
                      PPPP                     0
                      PPPH               1913127
                      PPHH                269702
                      PHPH                144812
                      PHHH                 41172
                      HHHH                  1765

                     TOTAL               2370578

  @FORMT2-I, Second-order MP correlation energies:
              ----------------------------------------------
              E(SCF)                = -232.655084272301 a.u.
              E2(AA)                =   -0.107894050145 a.u.
              E2(AB)                =   -0.554357643375 a.u.
              E2(TOT)               =   -0.770145743665 a.u.
              Total MP2 energy      = -233.425230015967 a.u.
              ----------------------------------------------
   Largest T2 amplitudes for spin case AB:
       _       _                 _       _                 _       _
   i   j   a   b             i   j   a   b             i   j   a   b
-----------------------------------------------------------------------------
[ 17  17 130 130]-0.06387 [ 16  16 130 130]-0.06387 [ 17  17 131 130] 0.03794
[ 17  17 130 131] 0.03794 [ 16  16 131 130] 0.03794 [ 16  16 130 131] 0.03794
[  4   4  80  80]-0.02620 [ 16   4 130  64]-0.02524 [  4  16  64 130]-0.02524
[  4  17  46 130] 0.02524 [ 17   4 130  46] 0.02524 [ 15  15 130 130]-0.02485
[ 17  17 131 131]-0.02372 [ 16  16 131 131]-0.02372 [ 16   8 130  80] 0.02223
-----------------------------------------------------------------------------
   Norm of T2AB vector (   537347 symmetry allowed elements):  0.4444286795.
-----------------------------------------------------------------------------
  @CHECKOUT-I, Total execution time :       0.7100 seconds.
                0.50 seconds walltime passed
 --executable xintprc finished with status            0
 --invoking executable xecc
 CCSD(T) energy will be calculated.
 AO based algorithm is used. 
 Largest T2 amplitudes for spin case AB:
        _       _                 _       _                 _       _
    i   j   a   b             i   j   a   b             i   j   a   b
 -----------------------------------------------------------------------------
 [ 17  17 130 130]-0.06387 [ 16  16 130 130]-0.06387 [ 17  17 131 130] 0.03794
 [ 17  17 130 131] 0.03794 [ 16  16 131 130] 0.03794 [ 16  16 130 131] 0.03794
 [  4   4  80  80]-0.02620 [ 16   4 130  64]-0.02524 [  4  16  64 130]-0.02524
 [  4  17  46 130] 0.02524 [ 17   4 130  46] 0.02524 [ 15  15 130 130]-0.02485
 [ 17  17 131 131]-0.02372 [ 16  16 131 131]-0.02372 [ 16   8 130  80] 0.02223
 -----------------------------------------------------------------------------
 Norm of T2AB vector (   537347 symmetry allowed elements):  0.4444286795.
 -----------------------------------------------------------------------------
 The total correlation energy is -0.770145743665 a.u.
 Resorts of amplitudes and integrals required   0.1 seconds.
 Starting iterative solution of the CC equations.
 The DIIS procedure is used to accelerate convergence.
 5 expansion vectors are used in the DIIS extrapolation.
 Convergence criterium is 10**(-7).
 Maximum number of iterations is  50.
 Iteration Nr. 1
 Generation of Intermediates required        0.9 seconds.
 Transformation of t(ab,ij) amplitudes required    0.0 seconds.
 Contraction of t(mu nu,ij) with AO integrals required    6.7 seconds.
 Backtransformation of t(mu nu,ij) increments required    0.1 seconds.
 Construction of Hbar(ab,ij) and Hbar(a,i) required   7.3 seconds.
 Amplitude changes are:
 -------------------------------------------------------------------
              Spin      RMS          Max.      Max. change for
  Amplitude   Case     Change       Change       i    j    a    b
 -------------------------------------------------------------------
     T1        AA    0.0001694036-0.0167452236   13        82
     T2        AB    0.0000001401 0.0120743668   17   17  130  130
 -------------------------------------------------------------------
 The total correlation energy is -0.723615715252 a.u.
 Convergence information after     1 iterations: 
 Largest element of residual vector : -0.16745224E-01.
 Largest element of DIIS residual   : -0.16745224E-01.
 CPU: This iteration required        8.4 seconds.
 Iteration Nr. 2
 Generation of Intermediates required        0.8 seconds.
 Transformation of t(ab,ij) amplitudes required    0.1 seconds.
 Contraction of t(mu nu,ij) with AO integrals required    6.7 seconds.
 Backtransformation of t(mu nu,ij) increments required    0.1 seconds.
 Construction of Hbar(ab,ij) and Hbar(a,i) required   7.4 seconds.
 Amplitude changes are:
 -------------------------------------------------------------------
              Spin      RMS          Max.      Max. change for
  Amplitude   Case     Change       Change       i    j    a    b
 -------------------------------------------------------------------
     T1        AA    0.0000249705 0.0017294732   13        79
     T2        AB    0.0000000645-0.0079618776   17   17  130  130
 -------------------------------------------------------------------
 The total correlation energy is -0.755489961587 a.u.
 Convergence information after     2 iterations: 
 Largest element of residual vector : -0.79618776E-02.
 Largest element of DIIS residual   : -0.41394167E-02.
 CPU: This iteration required        8.4 seconds.
 Iteration Nr. 3
 Generation of Intermediates required        0.9 seconds.
 Transformation of t(ab,ij) amplitudes required    0.1 seconds.
 Contraction of t(mu nu,ij) with AO integrals required    6.7 seconds.
 Backtransformation of t(mu nu,ij) increments required    0.1 seconds.
 Construction of Hbar(ab,ij) and Hbar(a,i) required   7.4 seconds.
 Amplitude changes are:
 -------------------------------------------------------------------
              Spin      RMS          Max.      Max. change for
  Amplitude   Case     Change       Change       i    j    a    b
 -------------------------------------------------------------------
     T1        AA    0.0000241126-0.0024268754   11        59
     T2        AB    0.0000000184-0.0010424838   17   17  130  130
 -------------------------------------------------------------------
 The total correlation energy is -0.752467290693 a.u.
 Convergence information after     3 iterations: 
 Largest element of residual vector : -0.24268754E-02.
 Largest element of DIIS residual   : -0.24430701E-02.
 CPU: This iteration required        8.6 seconds.
 Iteration Nr. 4
 Generation of Intermediates required        0.9 seconds.
 Transformation of t(ab,ij) amplitudes required    0.1 seconds.
 Contraction of t(mu nu,ij) with AO integrals required    6.8 seconds.
 Backtransformation of t(mu nu,ij) increments required    0.1 seconds.
 Construction of Hbar(ab,ij) and Hbar(a,i) required   7.4 seconds.
 Amplitude changes are:
 -------------------------------------------------------------------
              Spin      RMS          Max.      Max. change for
  Amplitude   Case     Change       Change       i    j    a    b
 -------------------------------------------------------------------
     T1        AA    0.0000063279 0.0005634940   11        63
     T2        AB    0.0000000053-0.0003441656   17   17  130  130
 -------------------------------------------------------------------
 The total correlation energy is -0.754826047866 a.u.
 Convergence information after     4 iterations: 
 Largest element of residual vector :  0.56349400E-03.
 Largest element of DIIS residual   :  0.47664723E-03.
 CPU: This iteration required        8.7 seconds.
 Iteration Nr. 5
 Generation of Intermediates required        0.8 seconds.
 Transformation of t(ab,ij) amplitudes required    0.1 seconds.
 Contraction of t(mu nu,ij) with AO integrals required    6.7 seconds.
 Backtransformation of t(mu nu,ij) increments required    0.1 seconds.
 Construction of Hbar(ab,ij) and Hbar(a,i) required   7.4 seconds.
 Amplitude changes are:
 -------------------------------------------------------------------
              Spin      RMS          Max.      Max. change for
  Amplitude   Case     Change       Change       i    j    a    b
 -------------------------------------------------------------------
     T1        AA    0.0000042655-0.0006392082   11        59
     T2        AB    0.0000000019-0.0001268862   17   17  130  130
 -------------------------------------------------------------------
 The total correlation energy is -0.755097949403 a.u.
 Convergence information after     5 iterations: 
 Largest element of residual vector : -0.63920823E-03.
 Largest element of DIIS residual   : -0.27717448E-03.
 Largest T1 amplitudes for spin case AA:
    i       a                 i       a                 i       a    
 -----------------------------------------------------------------------------
 [ 13      82    ]-0.01975 [ 11      59    ]-0.01441 [  8      41    ]-0.01441
 [ 17     127    ] 0.01386 [ 16     116    ] 0.01386 [  4      37    ]-0.01214
 [  5      31    ] 0.01213 [  8      42    ] 0.01197 [ 11      60    ] 0.01197
 [  5      21    ] 0.01192 [  5      26    ]-0.01137 [ 11      65    ]-0.01115
 [  8      47    ]-0.01115 [ 11      63    ] 0.01009 [  8      45    ] 0.01009
 -----------------------------------------------------------------------------
 Norm of T1AA vector (      304 symmetry allowed elements):  0.0643022440.
 -----------------------------------------------------------------------------
 Largest T2 amplitudes for spin case AB:
        _       _                 _       _                 _       _
    i   j   a   b             i   j   a   b             i   j   a   b
 -----------------------------------------------------------------------------
 [ 17  17 130 130]-0.06071 [ 16  16 130 130]-0.06071 [ 17  17 131 130] 0.03672
 [ 17  17 130 131] 0.03672 [ 16  16 131 130] 0.03672 [ 16  16 130 131] 0.03672
 [  4   4  80  80]-0.02825 [ 17  17 131 131]-0.02296 [ 16  16 131 131]-0.02296
 [  8   8  80  80]-0.02196 [ 11  11  80  80]-0.02196 [ 16   4 130  64]-0.02137
 [  4  16  64 130]-0.02137 [ 17   4 130  46] 0.02137 [  4  17  46 130] 0.02137
 -----------------------------------------------------------------------------
 Norm of T2AB vector (   537347 symmetry allowed elements):  0.4613452860.
 -----------------------------------------------------------------------------
 CPU: This iteration required        8.7 seconds.
 Iteration Nr. 6
 Generation of Intermediates required        0.9 seconds.
 Transformation of t(ab,ij) amplitudes required    0.1 seconds.
 Contraction of t(mu nu,ij) with AO integrals required    6.8 seconds.
 Backtransformation of t(mu nu,ij) increments required    0.0 seconds.
 Construction of Hbar(ab,ij) and Hbar(a,i) required   7.5 seconds.
 Amplitude changes are:
 -------------------------------------------------------------------
              Spin      RMS          Max.      Max. change for
  Amplitude   Case     Change       Change       i    j    a    b
 -------------------------------------------------------------------
     T1        AA    0.0000010748 0.0001109746    8        42
     T2        AB    0.0000000005-0.0000243771   11   11   59   59
 -------------------------------------------------------------------
 The total correlation energy is -0.755124607834 a.u.
 Convergence information after     6 iterations: 
 Largest element of residual vector :  0.11097460E-03.
 Largest element of DIIS residual   :  0.72228204E-04.
 CPU: This iteration required        8.8 seconds.
 Iteration Nr. 7
 Generation of Intermediates required        0.9 seconds.
 Transformation of t(ab,ij) amplitudes required    0.1 seconds.
 Contraction of t(mu nu,ij) with AO integrals required    6.7 seconds.
 Backtransformation of t(mu nu,ij) increments required    0.1 seconds.
 Construction of Hbar(ab,ij) and Hbar(a,i) required   7.3 seconds.
 Amplitude changes are:
 -------------------------------------------------------------------
              Spin      RMS          Max.      Max. change for
  Amplitude   Case     Change       Change       i    j    a    b
 -------------------------------------------------------------------
     T1        AA    0.0000004718-0.0000606269    8        41
     T2        AB    0.0000000002 0.0000132935   16   16  130  130
 -------------------------------------------------------------------
 The total correlation energy is -0.755124978563 a.u.
 Convergence information after     7 iterations: 
 Largest element of residual vector : -0.60626949E-04.
 Largest element of DIIS residual   :  0.36965718E-04.
 CPU: This iteration required        8.6 seconds.
 Iteration Nr. 8
 Generation of Intermediates required        0.9 seconds.
 Transformation of t(ab,ij) amplitudes required    0.1 seconds.
 Contraction of t(mu nu,ij) with AO integrals required    6.8 seconds.
 Backtransformation of t(mu nu,ij) increments required    0.1 seconds.
 Construction of Hbar(ab,ij) and Hbar(a,i) required   7.4 seconds.
 Amplitude changes are:
 -------------------------------------------------------------------
              Spin      RMS          Max.      Max. change for
  Amplitude   Case     Change       Change       i    j    a    b
 -------------------------------------------------------------------
     T1        AA    0.0000001841-0.0000238303    8        41
     T2        AB    0.0000000001-0.0000038158   11   11   20   20
 -------------------------------------------------------------------
 The total correlation energy is -0.755126374799 a.u.
 Convergence information after     8 iterations: 
 Largest element of residual vector : -0.23830336E-04.
 Largest element of DIIS residual   : -0.10501021E-04.
 CPU: This iteration required        8.6 seconds.
 Iteration Nr. 9
 Generation of Intermediates required        0.9 seconds.
 Transformation of t(ab,ij) amplitudes required    0.1 seconds.
 Contraction of t(mu nu,ij) with AO integrals required    6.8 seconds.
 Backtransformation of t(mu nu,ij) increments required    0.1 seconds.
 Construction of Hbar(ab,ij) and Hbar(a,i) required   7.5 seconds.
 Amplitude changes are:
 -------------------------------------------------------------------
              Spin      RMS          Max.      Max. change for
  Amplitude   Case     Change       Change       i    j    a    b
 -------------------------------------------------------------------
     T1        AA    0.0000000517 0.0000048771   11        64
     T2        AB    0.0000000000 0.0000028084   17   17  130  130
 -------------------------------------------------------------------
 The total correlation energy is -0.755122977213 a.u.
 Convergence information after     9 iterations: 
 Largest element of residual vector :  0.48770720E-05.
 Largest element of DIIS residual   :  0.28211781E-05.
 CPU: This iteration required        8.8 seconds.
 Iteration Nr. 10
 Generation of Intermediates required        0.8 seconds.
 Transformation of t(ab,ij) amplitudes required    0.1 seconds.
 Contraction of t(mu nu,ij) with AO integrals required    6.7 seconds.
 Backtransformation of t(mu nu,ij) increments required    0.1 seconds.
 Construction of Hbar(ab,ij) and Hbar(a,i) required   7.4 seconds.
 Amplitude changes are:
 -------------------------------------------------------------------
              Spin      RMS          Max.      Max. change for
  Amplitude   Case     Change       Change       i    j    a    b
 -------------------------------------------------------------------
     T1        AA    0.0000000206 0.0000018133   11        64
     T2        AB    0.0000000000-0.0000006873   11   11   18   18
 -------------------------------------------------------------------
 The total correlation energy is -0.755124318184 a.u.
 Convergence information after    10 iterations: 
 Largest element of residual vector :  0.18133275E-05.
 Largest element of DIIS residual   :  0.17343950E-05.
 Largest T1 amplitudes for spin case AA:
    i       a                 i       a                 i       a    
 -----------------------------------------------------------------------------
 [ 13      82    ]-0.01974 [ 11      59    ]-0.01469 [  8      41    ]-0.01469
 [ 17     127    ] 0.01387 [ 16     116    ] 0.01387 [  8      42    ] 0.01222
 [ 11      60    ] 0.01222 [  4      37    ]-0.01213 [  5      31    ] 0.01210
 [  5      21    ] 0.01202 [  5      26    ]-0.01136 [ 11      65    ]-0.01126
 [  8      47    ]-0.01126 [ 11      63    ] 0.01029 [  8      45    ] 0.01029
 -----------------------------------------------------------------------------
 Norm of T1AA vector (      304 symmetry allowed elements):  0.0647203942.
 -----------------------------------------------------------------------------
 Largest T2 amplitudes for spin case AB:
        _       _                 _       _                 _       _
    i   j   a   b             i   j   a   b             i   j   a   b
 -----------------------------------------------------------------------------
 [ 17  17 130 130]-0.06069 [ 16  16 130 130]-0.06069 [ 17  17 131 130] 0.03671
 [ 17  17 130 131] 0.03671 [ 16  16 131 130] 0.03671 [ 16  16 130 131] 0.03671
 [  4   4  80  80]-0.02825 [ 17  17 131 131]-0.02296 [ 16  16 131 131]-0.02296
 [  8   8  80  80]-0.02197 [ 11  11  80  80]-0.02197 [ 16   4 130  64]-0.02136
 [  4  16  64 130]-0.02136 [ 17   4 130  46] 0.02136 [  4  17  46 130] 0.02136
 -----------------------------------------------------------------------------
 Norm of T2AB vector (   537347 symmetry allowed elements):  0.4612830311.
 -----------------------------------------------------------------------------
 CPU: This iteration required        8.6 seconds.
 Iteration Nr. 11
 Generation of Intermediates required        0.9 seconds.
 Transformation of t(ab,ij) amplitudes required    0.0 seconds.
 Contraction of t(mu nu,ij) with AO integrals required    6.8 seconds.
 Backtransformation of t(mu nu,ij) increments required    0.1 seconds.
 Construction of Hbar(ab,ij) and Hbar(a,i) required   7.4 seconds.
 Amplitude changes are:
 -------------------------------------------------------------------
              Spin      RMS          Max.      Max. change for
  Amplitude   Case     Change       Change       i    j    a    b
 -------------------------------------------------------------------
     T1        AA    0.0000000065 0.0000006377   11        64
     T2        AB    0.0000000000 0.0000003007   11   11   18   18
 -------------------------------------------------------------------
 The total correlation energy is -0.755124550286 a.u.
 Convergence information after    11 iterations: 
 Largest element of residual vector :  0.63774595E-06.
 Largest element of DIIS residual   :  0.44301542E-06.
 CPU: This iteration required        8.8 seconds.
 Iteration Nr. 12
 Generation of Intermediates required        0.9 seconds.
 Transformation of t(ab,ij) amplitudes required    0.1 seconds.
 Contraction of t(mu nu,ij) with AO integrals required    6.8 seconds.
 Backtransformation of t(mu nu,ij) increments required    0.1 seconds.
 Construction of Hbar(ab,ij) and Hbar(a,i) required   7.4 seconds.
 Amplitude changes are:
 -------------------------------------------------------------------
              Spin      RMS          Max.      Max. change for
  Amplitude   Case     Change       Change       i    j    a    b
 -------------------------------------------------------------------
     T1        AA    0.0000000041 0.0000005111   11        64
     T2        AB    0.0000000000-0.0000001433    8    8   18   18
 -------------------------------------------------------------------
 The total correlation energy is -0.755124665264 a.u.
 Convergence information after    12 iterations: 
 Largest element of residual vector :  0.51114413E-06.
 Largest element of DIIS residual   :  0.42199821E-06.
 CPU: This iteration required        8.8 seconds.
 Iteration Nr. 13
 Generation of Intermediates required        0.8 seconds.
 Transformation of t(ab,ij) amplitudes required    0.1 seconds.
 Contraction of t(mu nu,ij) with AO integrals required    6.8 seconds.
 Backtransformation of t(mu nu,ij) increments required    0.0 seconds.
 Construction of Hbar(ab,ij) and Hbar(a,i) required   7.4 seconds.
 Amplitude changes are:
 -------------------------------------------------------------------
              Spin      RMS          Max.      Max. change for
  Amplitude   Case     Change       Change       i    j    a    b
 -------------------------------------------------------------------
     T1        AA    0.0000000018 0.0000002434   11        64
     T2        AB    0.0000000000-0.0000000734   17   17  130  130
 -------------------------------------------------------------------
 The total correlation energy is -0.755124787459 a.u.
 Convergence information after    13 iterations: 
 Largest element of residual vector :  0.24342853E-06.
 Largest element of DIIS residual   :  0.20085791E-06.
 CPU: This iteration required        8.8 seconds.
 Iteration Nr. 14
 Generation of Intermediates required        0.8 seconds.
 Transformation of t(ab,ij) amplitudes required    0.1 seconds.
 Contraction of t(mu nu,ij) with AO integrals required    6.8 seconds.
 Backtransformation of t(mu nu,ij) increments required    0.1 seconds.
 Construction of Hbar(ab,ij) and Hbar(a,i) required   7.5 seconds.
 Amplitude changes are:
 -------------------------------------------------------------------
              Spin      RMS          Max.      Max. change for
  Amplitude   Case     Change       Change       i    j    a    b
 -------------------------------------------------------------------
     T1        AA    0.0000000007 0.0000000913   11        64
     T2        AB    0.0000000000-0.0000000188   11   11   92   92
 -------------------------------------------------------------------
 The total correlation energy is -0.755124824510 a.u.
 Convergence information after    14 iterations: 
 Largest element of residual vector :  0.91318295E-07.
 Largest element of DIIS residual   :  0.65929552E-07.
 Amplitude equations converged in    14 iterations.
 The total correlation energy is -0.755124838793 a.u.
 Summary of iterative solution of CC equations 
 -----------------------------------------------------------
                 Correlation           Total
  Iteration        Energy              Energy
 -----------------------------------------------------------
      0     -0.7701457436653019  -233.425230015967   DIIS 
      1     -0.7236157152522256  -233.378699987554   DIIS 
      2     -0.7554899615872801  -233.410574233889   DIIS 
      3     -0.7524672906925808  -233.407551562994   DIIS 
      4     -0.7548260478660193  -233.409910320167   DIIS 
      5     -0.7550979494027900  -233.410182221704   DIIS 
      6     -0.7551246078336671  -233.410208880135   DIIS 
      7     -0.7551249785625850  -233.410209250864   DIIS 
      8     -0.7551263747987741  -233.410210647100   DIIS 
      9     -0.7551229772133452  -233.410207249515   DIIS 
     10     -0.7551243181838601  -233.410208590485   DIIS 
     11     -0.7551245502860524  -233.410208822587   DIIS 
     12     -0.7551246652644914  -233.410208937566   DIIS 
     13     -0.7551247874587566  -233.410209059760   DIIS 
     14     -0.7551248387928786  -233.410209111094   DIIS 
 -----------------------------------------------------------
 A miracle come to pass. The CC iterations have converged.
 
 
 
 Non-iterative perturbative treatment of triple
 excitations using the CCSD(T) method:
 
--------------------------------------------------------------------------------
  CCSD energy                             -233.410209111094
--------------------------------------------------------------------------------
  CCSD(T) energy                    -233.448826349360
--------------------------------------------------------------------------------
  @CHECKOUT-I, Total execution time :     270.0000 seconds.
              133.50 seconds walltime passed
 --executable xecc finished with status            0
 --invoking executable xlcc
 Lambda equations are solved for CCSD(T)
 AO based algorithm is used. 
 The total correlation energy is -0.755115829764 a.u.
 Starting iterative solution of the Lambda equations.
 The DIIS procedure is used to accelerate convergence.
 5 expansion vectors are used in the DIIS extrapolation.
 Convergence criterium is 10**(-7).
 Maximum number of iterations is  50.
 The total correlation energy is -0.812020232192 a.u.
 Convergence information after     1 iterations: 
 Largest element of residual vector : -0.20272868E-01.
 Largest element of DIIS residual   : -0.20272868E-01.
 The total correlation energy is -0.796271763821 a.u.
 Convergence information after     2 iterations: 
 Largest element of residual vector : -0.29588737E-02.
 Largest element of DIIS residual   : -0.21510925E-02.
 The total correlation energy is -0.800287578562 a.u.
 Convergence information after     3 iterations: 
 Largest element of residual vector : -0.15527661E-02.
 Largest element of DIIS residual   :  0.57661840E-03.
 The total correlation energy is -0.800092734909 a.u.
 Convergence information after     4 iterations: 
 Largest element of residual vector : -0.39703729E-03.
 Largest element of DIIS residual   : -0.26107462E-03.
 The total correlation energy is -0.800093510740 a.u.
 Convergence information after     5 iterations: 
 Largest element of residual vector : -0.71354590E-04.
 Largest element of DIIS residual   :  0.49334227E-04.
 The total correlation energy is -0.800125639162 a.u.
 Convergence information after     6 iterations: 
 Largest element of residual vector : -0.48871419E-04.
 Largest element of DIIS residual   : -0.20611293E-04.
 The total correlation energy is -0.800127393368 a.u.
 Convergence information after     7 iterations: 
 Largest element of residual vector : -0.16281144E-04.
 Largest element of DIIS residual   : -0.10830435E-04.
 The total correlation energy is -0.800127512820 a.u.
 Convergence information after     8 iterations: 
[...]
      YYZ =    0.0000000000 XZZ =    0.0000000000 YZZ =    0.0000000000
      XYZ =    0.0000000000
  Relativistic correction to the energy 
      Darwin =    0.4667204815 p**4   =   -0.5838560169 Total  =   -0.1171355354
   Charge densities at atomic centers 
          Z-matrix                               Charge
           center                               Density
              2                             13.0353730513
              7                             13.0353730513
              3                            196.4797556619
              4                            196.4797556619
              6                            196.4797556619
              5                            196.4797556619
   Electric field gradient at atomic centers 
                             Z-matrix center   2:
       XX =   -0.0135795279  YY =   -0.0135795279  ZZ =    0.0271590559
       XY =    0.0000000000  XZ =    0.0000000000  YZ =    0.0000000000
                             Z-matrix center   7:
       XX =   -0.0135795279  YY =   -0.0135795279  ZZ =    0.0271590559
       XY =    0.0000000000  XZ =    0.0000000000  YZ =    0.0000000000
                             Z-matrix center   3:
       XX =    0.1024626991  YY =    0.1024626991  ZZ =   -0.2049253981
       XY =    0.5701178217  XZ =    0.0000000000  YZ =    0.0000000000
                             Z-matrix center   4:
       XX =    0.1024626991  YY =    0.1024626991  ZZ =   -0.2049253981
       XY =   -0.5701178217  XZ =    0.0000000000  YZ =    0.0000000000
                             Z-matrix center   6:
       XX =    0.1024626991  YY =    0.1024626991  ZZ =   -0.2049253981
       XY =   -0.5701178217  XZ =    0.0000000000  YZ =    0.0000000000
                             Z-matrix center   5:
       XX =    0.1024626991  YY =    0.1024626991  ZZ =   -0.2049253981
       XY =    0.5701178217  XZ =    0.0000000000  YZ =    0.0000000000
   Electrostatic potential at atomic centers 
          Z-matrix                             Potential
           center                               [<1/r>]
              2                             -5.7203510567
              7                             -5.7203510567
              3                            -18.3498982821
              4                            -18.3498982821
              6                            -18.3498982821
              5                            -18.3498982821
 
  Mulliken population analysis of SCF density.
   Total density is analyzed.
 
  Population analysis by orbitals.
 -------------------------------------------------------
     Z-matrix
      Center          Function          Population
 -------------------------------------------------------
         2                S              1.98304057
         7                S              1.98304057
         2                S              0.17145308
         7                S              0.17145308
         2                S              0.01261168
         7                S              0.01261168
         2                S             -0.00405415
         7                S             -0.00405415
         2                P              0.14341031
         7                P              0.14341031
         2                P             -0.00063071
         7                P             -0.00063071
         2                P              0.00005395
         7                P              0.00005395
         2                P              0.14341031
         7                P              0.14341031
         2                P             -0.00063071
         7                P             -0.00063071
         2                P              0.00005395
         7                P              0.00005395
         2                P              0.05612382
         7                P              0.05612382
         2                P             -0.01303965
         7                P             -0.01303965
         2                P              0.00169923
         7                P              0.00169923
         2                D             -0.00245269
         7                D             -0.00245269
         2                D              0.00371674
         7                D              0.00371674
         2                D              0.00533925
         7                D              0.00533925
         2                D             -0.00475493
         7                D             -0.00475493
         2                D              0.00628334
         7                D              0.00628334
         2                D              0.00901055
         7                D              0.00901055
         2                D             -0.00245269
         7                D             -0.00245269
         2                D              0.00371674
         7                D              0.00371674
         2                D              0.00628334
         7                D              0.00628334
         2                D              0.00901055
         7                D              0.00901055
         2                D             -0.00629933
         7                D             -0.00629933
         2                D              0.01022582
         7                D              0.01022582
         3                S              2.00529933
         4                S              2.00529933
         6                S              2.00529933
         5                S              2.00529933
         3                S              0.77970413
         4                S              0.77970413
         6                S              0.77970413
         5                S              0.77970413
         3                S              0.98350129
         4                S              0.98350129
         6                S              0.98350129
         5                S              0.98350129
         3                S              0.05946855
         4                S              0.05946855
         6                S              0.05946855
         5                S              0.05946855
         3                P              0.71344981
         4                P              0.71344981
         6                P              0.71344981
         5                P              0.71344981
         3                P              0.34652782
         4                P              0.34652782
         6                P              0.34652782
         5                P              0.34652782
         3                P             -0.00571125
         4                P             -0.00571125
         6                P             -0.00571125
         5                P             -0.00571125
         3                P              0.71344981
         4                P              0.71344981
         6                P              0.71344981
         5                P              0.71344981
         3                P              0.34652782
         4                P              0.34652782
         6                P              0.34652782
         5                P              0.34652782
         3                P             -0.00571125
         4                P             -0.00571125
         6                P             -0.00571125
         5                P             -0.00571125
         3                P              0.71625225
         4                P              0.71625225
         6                P              0.71625225
         5                P              0.71625225
         3                P              0.63049446
         4                P              0.63049446
         6                P              0.63049446
         5                P              0.63049446
         3                P             -0.06617208
         4                P             -0.06617208
         6                P             -0.06617208
         5                P             -0.06617208
         3                D              0.01554793
         4                D              0.01554793
         6                D              0.01554793
         5                D              0.01554793
         3                D             -0.00052488
         4                D             -0.00052488
         6                D             -0.00052488
         5                D             -0.00052488
         3                D              0.00742763
         4                D              0.00742763
         6                D              0.00742763
         5                D              0.00742763
         3                D             -0.02178147
         4                D             -0.02178147
         6                D             -0.02178147
         5                D             -0.02178147
         3                D              0.00882465
         4                D              0.00882465
         6                D              0.00882465
         5                D              0.00882465
         3                D             -0.00955568
         4                D             -0.00955568
         6                D             -0.00955568
         5                D             -0.00955568
         3                D              0.01554793
         4                D              0.01554793
         6                D              0.01554793
         5                D              0.01554793
         3                D             -0.00052488
         4                D             -0.00052488
         6                D             -0.00052488
         5                D             -0.00052488
         3                D              0.00882465
         4                D              0.00882465
         6                D              0.00882465
         5                D              0.00882465
         3                D             -0.00955568
         4                D             -0.00955568
         6                D             -0.00955568
         5                D             -0.00955568
         3                D              0.00413598
         4                D              0.00413598
         6                D              0.00413598
         5                D              0.00413598
         3                D             -0.00101106
         4                D             -0.00101106
         6                D             -0.00101106
         5                D             -0.00101106
 -------------------------------------------------------
  Population analysis by atoms (atomic charges).
 -------------------------------------------------------
     Z-matrix
      Center          Function          Population
 -------------------------------------------------------
         2                               2.53112838
         7                               2.53112838
         3                               7.23443581
         4                               7.23443581
         6                               7.23443581
         5                               7.23443581
 -------------------------------------------------------
 
  Mulliken population analysis of CCSD(T) density.
   Total density is analyzed.
 
  Population analysis by orbitals.
 -------------------------------------------------------
     Z-matrix
      Center          Function          Population
 -------------------------------------------------------
         2                S              1.96785261
         7                S              1.96785261
         2                S              0.18092004
         7                S              0.18092004
         2                S              0.00908740
         7                S              0.00908740
         2                S             -0.00377518
         7                S             -0.00377518
         2                P              0.15799432
         7                P              0.15799432
         2                P              0.00064476
         7                P              0.00064476
         2                P              0.00004843
         7                P              0.00004843
         2                P              0.15799432
         7                P              0.15799432
         2                P              0.00064476
         7                P              0.00064476
         2                P              0.00004843
         7                P              0.00004843
         2                P              0.07268034
         7                P              0.07268034
         2                P             -0.01293420
         7                P             -0.01293420
         2                P              0.00174230
         7                P              0.00174230
         2                D             -0.00075923
         7                D             -0.00075923
         2                D              0.00210099
         7                D              0.00210099
         2                D              0.00559562
         7                D              0.00559562
         2                D             -0.00520748
         7                D             -0.00520748
         2                D              0.00780342
         7                D              0.00780342
         2                D              0.01071503
         7                D              0.01071503
         2                D             -0.00075923
         7                D             -0.00075923
         2                D              0.00210099
         7                D              0.00210099
         2                D              0.00780342
         7                D              0.00780342
         2                D              0.01071503
         7                D              0.01071503
         2                D             -0.00415125
         7                D             -0.00415125
         2                D              0.00701626
         7                D              0.00701626
         3                S              2.00598882
         4                S              2.00598882
         6                S              2.00598882
         5                S              2.00598882
         3                S              0.78961520
         4                S              0.78961520
         6                S              0.78961520
         5                S              0.78961520
         3                S              0.93538064
         4                S              0.93538064
         6                S              0.93538064
         5                S              0.93538064
         3                S              0.09540702
         4                S              0.09540702
         6                S              0.09540702
         5                S              0.09540702
         3                P              0.71448564
         4                P              0.71448564
         6                P              0.71448564
         5                P              0.71448564
         3                P              0.32720723
         4                P              0.32720723
         6                P              0.32720723
         5                P              0.32720723
         3                P             -0.00804286
         4                P             -0.00804286
         6                P             -0.00804286
         5                P             -0.00804286
         3                P              0.71448564
         4                P              0.71448564
         6                P              0.71448564
         5                P              0.71448564
         3                P              0.32720723
         4                P              0.32720723
         6                P              0.32720723
         5                P              0.32720723
         3                P             -0.00804286
         4                P             -0.00804286
         6                P             -0.00804286
         5                P             -0.00804286
         3                P              0.74121419
         4                P              0.74121419
         6                P              0.74121419
         5                P              0.74121419
         3                P              0.58212935
         4                P              0.58212935
         6                P              0.58212935
         5                P              0.58212935
         3                P             -0.05770016
         4                P             -0.05770016
         6                P             -0.05770016
         5                P             -0.05770016
         3                D              0.01637153
         4                D              0.01637153
         6                D              0.01637153
         5                D              0.01637153
         3                D             -0.00013763
         4                D             -0.00013763
         6                D             -0.00013763
         5                D             -0.00013763
         3                D              0.01236243
         4                D              0.01236243
         6                D              0.01236243
         5                D              0.01236243
         3                D             -0.01489199
         4                D             -0.01489199
         6                D             -0.01489199
         5                D             -0.01489199
         3                D              0.01268719
         4                D              0.01268719
         6                D              0.01268719
         5                D              0.01268719
         3                D             -0.00585661
         4                D             -0.00585661
         6                D             -0.00585661
         5                D             -0.00585661
         3                D              0.01637153
         4                D              0.01637153
         6                D              0.01637153
         5                D              0.01637153
         3                D             -0.00013763
         4                D             -0.00013763
         6                D             -0.00013763
         5                D             -0.00013763
         3                D              0.01268719
         4                D              0.01268719
         6                D              0.01268719
         5                D              0.01268719
         3                D             -0.00585661
         4                D             -0.00585661
         6                D             -0.00585661
         5                D             -0.00585661
         3                D              0.00699453
         4                D              0.00699453
         6                D              0.00699453
         5                D              0.00699453
         3                D              0.00211002
         4                D              0.00211002
         6                D              0.00211002
         5                D              0.00211002
 -------------------------------------------------------
  Population analysis by atoms (atomic charges).
 -------------------------------------------------------
     Z-matrix
      Center          Function          Population
 -------------------------------------------------------
         2                               2.57592190
         7                               2.57592190
         3                               7.21203905
         4                               7.21203905
         6                               7.21203905
         5                               7.21203905
 -------------------------------------------------------
 --executable xprops finished with status            0
