 Entering Gaussian System, Link 0=g09
 Initial command:
 /home/armando/g09/l1.exe /tmp/pyridine_opbe631_tddft/Gau-8925.inp -scrdir=/tmp/pyridine_opbe631_tddft/
 Entering Link 1 = /home/armando/g09/l1.exe PID=      8926.
  
 Copyright (c) 1988,1990,1992,1993,1995,1998,2003,2009, Gaussian, Inc.
                  All Rights Reserved.
  
 This is part of the Gaussian(R) 09 program.  It is based on
 the Gaussian(R) 03 system (copyright 2003, Gaussian, Inc.),
 the Gaussian(R) 98 system (copyright 1998, Gaussian, Inc.),
 the Gaussian(R) 94 system (copyright 1995, Gaussian, Inc.),
 the Gaussian 92(TM) system (copyright 1992, Gaussian, Inc.),
 the Gaussian 90(TM) system (copyright 1990, Gaussian, Inc.),
 the Gaussian 88(TM) system (copyright 1988, Gaussian, Inc.),
 the Gaussian 86(TM) system (copyright 1986, Carnegie Mellon
 University), and the Gaussian 82(TM) system (copyright 1983,
 Carnegie Mellon University). Gaussian is a federally registered
 trademark of Gaussian, Inc.
  
 This software contains proprietary and confidential information,
 including trade secrets, belonging to Gaussian, Inc.
  
 This software is provided under written license and may be
 used, copied, transmitted, or stored only in accord with that
 written license.
  
 The following legend is applicable only to US Government
 contracts under FAR:
  
                    RESTRICTED RIGHTS LEGEND
  
 Use, reproduction and disclosure by the US Government is
 subject to restrictions as set forth in subparagraphs (a)
 and (c) of the Commercial Computer Software - Restricted
 Rights clause in FAR 52.227-19.
  
 Gaussian, Inc.
 340 Quinnipiac St., Bldg. 40, Wallingford CT 06492
  
  
 ---------------------------------------------------------------
 Warning -- This program may not be used in any manner that
 competes with the business of Gaussian, Inc. or will provide
 assistance to any competitor of Gaussian, Inc.  The licensee
 of this program is prohibited from giving any competitor of
 Gaussian, Inc. access to this program.  By using this program,
 the user acknowledges that Gaussian, Inc. is engaged in the
 business of creating and licensing software in the field of
 computational chemistry and represents and warrants to the
 licensee that it is not a competitor of Gaussian, Inc. and that
 it will not use this program in any manner prohibited above.
 ---------------------------------------------------------------
  

 Cite this work as:
 Gaussian 09, Revision A.01,
 M. J. Frisch, G. W. Trucks, H. B. Schlegel, G. E. Scuseria, 
 M. A. Robb, J. R. Cheeseman, G. Scalmani, V. Barone, B. Mennucci, 
 G. A. Petersson, H. Nakatsuji, M. Caricato, X. Li, H. P. Hratchian, 
 A. F. Izmaylov, J. Bloino, G. Zheng, J. L. Sonnenberg, M. Hada, 
 M. Ehara, K. Toyota, R. Fukuda, J. Hasegawa, M. Ishida, T. Nakajima, 
 Y. Honda, O. Kitao, H. Nakai, T. Vreven, J. A. Montgomery, Jr., 
 J. E. Peralta, F. Ogliaro, M. Bearpark, J. J. Heyd, E. Brothers, 
 K. N. Kudin, V. N. Staroverov, R. Kobayashi, J. Normand, 
 K. Raghavachari, A. Rendell, J. C. Burant, S. S. Iyengar, J. Tomasi, 
 M. Cossi, N. Rega, J. M. Millam, M. Klene, J. E. Knox, J. B. Cross, 
 V. Bakken, C. Adamo, J. Jaramillo, R. Gomperts, R. E. Stratmann, 
 O. Yazyev, A. J. Austin, R. Cammi, C. Pomelli, J. W. Ochterski, 
 R. L. Martin, K. Morokuma, V. G. Zakrzewski, G. A. Voth, 
 P. Salvador, J. J. Dannenberg, S. Dapprich, A. D. Daniels, 
 O. Farkas, J. B. Foresman, J. V. Ortiz, J. Cioslowski, 
 and D. J. Fox, Gaussian, Inc., Wallingford CT, 2009.
 
 ******************************************
 Gaussian 09:  EM64L-G09RevA.01  8-May-2009
                 5-May-2011 
 ******************************************
 %mem=128mb
 %nproc=2
 Will use up to    2 processors via shared memory.
 ---------------------------------------------
 #opbe 6-31G* td=(nstates=10) gfinput pop=full
 ---------------------------------------------
 1/38=1/1;
 2/12=2,17=6,18=5,40=1/2;
 3/5=1,6=6,7=1,11=2,16=1,24=10,25=1,30=1,74=2009/1,2,8,3;
 4//1;
 5/5=2,38=5/2;
 8/6=1,10=2,108=10/1;
 9/41=10,42=1/14;
 6/7=3/1;
 99/5=1,9=1/99;
 ----------------------
 opbe 6-31G* vacuo geom
 ----------------------
 Symbolic Z-matrix:
 Charge =  0 Multiplicity = 1
 C                     0.        1.20019  -0.67488 
 C                     0.        1.14007   0.72268 
 N                     0.        0.        1.42727 
 C                     0.       -1.14007   0.72268 
 C                     0.       -1.20019  -0.67488 
 C                     0.        0.       -1.38927 
 H                     0.        2.16332  -1.187 
 H                     0.        2.06182   1.31294 
 H                     0.       -2.06182   1.31294 
 H                     0.       -2.16332  -1.187 
 H                     0.        0.       -2.48072 
 
                          Input orientation:                          
 ---------------------------------------------------------------------
 Center     Atomic      Atomic             Coordinates (Angstroms)
 Number     Number       Type             X           Y           Z
 ---------------------------------------------------------------------
      1          6           0        0.000000    1.200185   -0.674878
      2          6           0        0.000000    1.140066    0.722676
      3          7           0        0.000000    0.000000    1.427266
      4          6           0        0.000000   -1.140066    0.722676
      5          6           0        0.000000   -1.200185   -0.674878
      6          6           0        0.000000    0.000000   -1.389268
      7          1           0        0.000000    2.163316   -1.186997
      8          1           0        0.000000    2.061817    1.312940
      9          1           0        0.000000   -2.061817    1.312940
     10          1           0        0.000000   -2.163316   -1.186997
     11          1           0        0.000000    0.000000   -2.480723
 ---------------------------------------------------------------------
                    Distance matrix (angstroms):
                    1          2          3          4          5
     1  C    0.000000
     2  C    1.398846   0.000000
     3  N    2.420631   1.340223   0.000000
     4  C    2.725790   2.280132   1.340223   0.000000
     5  C    2.400370   2.725790   2.420631   1.398846   0.000000
     6  C    1.396709   2.400012   2.816534   2.400012   1.396709
     7  H    1.090820   2.166539   3.393274   3.815650   3.402265
     8  H    2.166525   1.094549   2.064984   3.255836   3.819958
     9  H    3.819958   3.255836   2.064984   1.094549   2.166525
    10  H    3.402265   3.815650   3.393274   2.166539   1.090820
    11  H    2.168299   3.400223   3.907989   3.400223   2.168299
                    6          7          8          9         10
     6  C    0.000000
     7  H    2.172752   0.000000
     8  H    3.398973   2.501997   0.000000
     9  H    3.398973   4.909321   4.123634   0.000000
    10  H    2.172752   4.326632   4.909321   2.501997   0.000000
    11  H    1.091455   2.520647   4.317750   4.317750   2.520647
                   11
    11  H    0.000000
 Stoichiometry    C5H5N
 Framework group  C2V[C2(HCN),SGV(C4H4)]
 Deg. of freedom    10
 Full point group                 C2V     NOp   4
 Largest Abelian subgroup         C2V     NOp   4
 Largest concise Abelian subgroup C2      NOp   2
                         Standard orientation:                         
 ---------------------------------------------------------------------
 Center     Atomic      Atomic             Coordinates (Angstroms)
 Number     Number       Type             X           Y           Z
 ---------------------------------------------------------------------
      1          6           0        0.000000    1.200185   -0.674878
      2          6           0        0.000000    1.140066    0.722676
      3          7           0        0.000000    0.000000    1.427266
      4          6           0        0.000000   -1.140066    0.722676
      5          6           0        0.000000   -1.200185   -0.674878
      6          6           0        0.000000    0.000000   -1.389268
      7          1           0        0.000000    2.163316   -1.186997
      8          1           0        0.000000    2.061817    1.312940
      9          1           0        0.000000   -2.061817    1.312940
     10          1           0        0.000000   -2.163316   -1.186997
     11          1           0        0.000000    0.000000   -2.480723
 ---------------------------------------------------------------------
 Rotational constants (GHZ):      6.0331882      5.7687592      2.9490057
 Standard basis: 6-31G(d) (6D, 7F)
 AO basis set in the form of general basis input (Overlap normalization):
      1 0
 S   6 1.00       0.000000000000
      0.3047524880D+04  0.1834737132D-02
      0.4573695180D+03  0.1403732281D-01
      0.1039486850D+03  0.6884262226D-01
      0.2921015530D+02  0.2321844432D+00
      0.9286662960D+01  0.4679413484D+00
      0.3163926960D+01  0.3623119853D+00
 SP   3 1.00       0.000000000000
      0.7868272350D+01 -0.1193324198D+00  0.6899906659D-01
      0.1881288540D+01 -0.1608541517D+00  0.3164239610D+00
      0.5442492580D+00  0.1143456438D+01  0.7443082909D+00
 SP   1 1.00       0.000000000000
      0.1687144782D+00  0.1000000000D+01  0.1000000000D+01
 D   1 1.00       0.000000000000
      0.8000000000D+00  0.1000000000D+01
 ****
      2 0
 S   6 1.00       0.000000000000
      0.3047524880D+04  0.1834737132D-02
      0.4573695180D+03  0.1403732281D-01
      0.1039486850D+03  0.6884262226D-01
      0.2921015530D+02  0.2321844432D+00
      0.9286662960D+01  0.4679413484D+00
      0.3163926960D+01  0.3623119853D+00
 SP   3 1.00       0.000000000000
      0.7868272350D+01 -0.1193324198D+00  0.6899906659D-01
      0.1881288540D+01 -0.1608541517D+00  0.3164239610D+00
      0.5442492580D+00  0.1143456438D+01  0.7443082909D+00
 SP   1 1.00       0.000000000000
      0.1687144782D+00  0.1000000000D+01  0.1000000000D+01
 D   1 1.00       0.000000000000
      0.8000000000D+00  0.1000000000D+01
 ****
      3 0
 S   6 1.00       0.000000000000
      0.4173511460D+04  0.1834772160D-02
      0.6274579110D+03  0.1399462700D-01
      0.1429020930D+03  0.6858655181D-01
      0.4023432930D+02  0.2322408730D+00
      0.1282021290D+02  0.4690699481D+00
      0.4390437010D+01  0.3604551991D+00
 SP   3 1.00       0.000000000000
      0.1162636186D+02 -0.1149611817D+00  0.6757974388D-01
      0.2716279807D+01 -0.1691174786D+00  0.3239072959D+00
      0.7722183966D+00  0.1145851947D+01  0.7408951398D+00
 SP   1 1.00       0.000000000000
      0.2120314975D+00  0.1000000000D+01  0.1000000000D+01
 D   1 1.00       0.000000000000
      0.8000000000D+00  0.1000000000D+01
 ****
      4 0
 S   6 1.00       0.000000000000
      0.3047524880D+04  0.1834737132D-02
      0.4573695180D+03  0.1403732281D-01
      0.1039486850D+03  0.6884262226D-01
      0.2921015530D+02  0.2321844432D+00
      0.9286662960D+01  0.4679413484D+00
      0.3163926960D+01  0.3623119853D+00
 SP   3 1.00       0.000000000000
      0.7868272350D+01 -0.1193324198D+00  0.6899906659D-01
      0.1881288540D+01 -0.1608541517D+00  0.3164239610D+00
      0.5442492580D+00  0.1143456438D+01  0.7443082909D+00
 SP   1 1.00       0.000000000000
      0.1687144782D+00  0.1000000000D+01  0.1000000000D+01
 D   1 1.00       0.000000000000
      0.8000000000D+00  0.1000000000D+01
 ****
      5 0
 S   6 1.00       0.000000000000
      0.3047524880D+04  0.1834737132D-02
      0.4573695180D+03  0.1403732281D-01
      0.1039486850D+03  0.6884262226D-01
      0.2921015530D+02  0.2321844432D+00
      0.9286662960D+01  0.4679413484D+00
      0.3163926960D+01  0.3623119853D+00
 SP   3 1.00       0.000000000000
      0.7868272350D+01 -0.1193324198D+00  0.6899906659D-01
      0.1881288540D+01 -0.1608541517D+00  0.3164239610D+00
      0.5442492580D+00  0.1143456438D+01  0.7443082909D+00
 SP   1 1.00       0.000000000000
      0.1687144782D+00  0.1000000000D+01  0.1000000000D+01
 D   1 1.00       0.000000000000
      0.8000000000D+00  0.1000000000D+01
 ****
      6 0
 S   6 1.00       0.000000000000
      0.3047524880D+04  0.1834737132D-02
      0.4573695180D+03  0.1403732281D-01
      0.1039486850D+03  0.6884262226D-01
      0.2921015530D+02  0.2321844432D+00
      0.9286662960D+01  0.4679413484D+00
      0.3163926960D+01  0.3623119853D+00
 SP   3 1.00       0.000000000000
      0.7868272350D+01 -0.1193324198D+00  0.6899906659D-01
      0.1881288540D+01 -0.1608541517D+00  0.3164239610D+00
      0.5442492580D+00  0.1143456438D+01  0.7443082909D+00
 SP   1 1.00       0.000000000000
      0.1687144782D+00  0.1000000000D+01  0.1000000000D+01
 D   1 1.00       0.000000000000
      0.8000000000D+00  0.1000000000D+01
 ****
      7 0
 S   3 1.00       0.000000000000
      0.1873113696D+02  0.3349460434D-01
      0.2825394365D+01  0.2347269535D+00
      0.6401216923D+00  0.8137573261D+00
 S   1 1.00       0.000000000000
      0.1612777588D+00  0.1000000000D+01
 ****
      8 0
 S   3 1.00       0.000000000000
      0.1873113696D+02  0.3349460434D-01
      0.2825394365D+01  0.2347269535D+00
      0.6401216923D+00  0.8137573261D+00
 S   1 1.00       0.000000000000
      0.1612777588D+00  0.1000000000D+01
 ****
      9 0
 S   3 1.00       0.000000000000
      0.1873113696D+02  0.3349460434D-01
      0.2825394365D+01  0.2347269535D+00
      0.6401216923D+00  0.8137573261D+00
 S   1 1.00       0.000000000000
      0.1612777588D+00  0.1000000000D+01
 ****
     10 0
 S   3 1.00       0.000000000000
      0.1873113696D+02  0.3349460434D-01
      0.2825394365D+01  0.2347269535D+00
      0.6401216923D+00  0.8137573261D+00
 S   1 1.00       0.000000000000
      0.1612777588D+00  0.1000000000D+01
 ****
     11 0
 S   3 1.00       0.000000000000
      0.1873113696D+02  0.3349460434D-01
      0.2825394365D+01  0.2347269535D+00
      0.6401216923D+00  0.8137573261D+00
 S   1 1.00       0.000000000000
      0.1612777588D+00  0.1000000000D+01
 ****

 There are    44 symmetry adapted basis functions of A1  symmetry.
 There are    10 symmetry adapted basis functions of A2  symmetry.
 There are    14 symmetry adapted basis functions of B1  symmetry.
 There are    32 symmetry adapted basis functions of B2  symmetry.
 Integral buffers will be    131072 words long.
 Raffenetti 2 integral format.
 Two-electron integral symmetry is turned on.
   100 basis functions,   188 primitive gaussians,   100 cartesian basis functions
    21 alpha electrons       21 beta electrons
       nuclear repulsion energy       205.4794531692 Hartrees.
 NAtoms=   11 NActive=   11 NUniq=    7 SFac= 1.85D+00 NAtFMM=   80 NAOKFM=F Big=F
 One-electron integrals computed using PRISM.
 NBasis=   100 RedAO= T  NBF=    44    10    14    32
 NBsUse=   100 1.00D-06 NBFU=    44    10    14    32
 Harris functional with IExCor= 2009 diagonalized for initial guess.
 ExpMin= 1.61D-01 ExpMax= 4.17D+03 ExpMxC= 6.27D+02 IAcc=1 IRadAn=         1 AccDes= 0.00D+00
 HarFok:  IExCor= 2009 AccDes= 0.00D+00 IRadAn=         1 IDoV= 1
 ScaDFX=  1.000000  1.000000  1.000000  1.000000
 FoFCou: FMM=F IPFlag=           0 FMFlag=      100000 FMFlg1=           0
         NFxFlg=           0 DoJE=T BraDBF=F KetDBF=T FulRan=T
         Omega=  0.000000  0.000000  1.000000  0.000000  0.000000 ICntrl=     500 IOpCl=  0
         NMat0=    1 NMatS0=    1 NMatT0=    0 NMatD0=    1 NMtDS0=    0 NMtDT0=    0
         I1Cent=           4 NGrid=           0.
 Petite list used in FoFCou.
 Initial guess orbital symmetries:
       Occupied  (A1) (A1) (B2) (A1) (B2) (A1) (A1) (A1) (B2) (B2)
                 (A1) (A1) (B2) (A1) (B2) (A1) (B1) (B2) (B1) (A1)
                 (A2)
       Virtual   (B1) (A2) (B1) (A1) (B2) (A1) (B2) (A1) (A1) (B2)
                 (B2) (A1) (A1) (B2) (B2) (B1) (A1) (A1) (B2) (A1)
                 (A2) (A1) (B1) (B2) (A2) (B1) (A1) (B2) (A1) (B2)
                 (B1) (A1) (B2) (A1) (A1) (B2) (B2) (A1) (A2) (A1)
                 (B2) (B1) (A1) (A2) (B1) (B1) (A2) (B2) (A1) (A1)
                 (B2) (A1) (A1) (B2) (A1) (A2) (B2) (B1) (B2) (A1)
                 (B1) (A2) (B1) (A1) (B2) (A1) (A1) (A2) (B2) (A1)
                 (B2) (B2) (A1) (A1) (B2) (A1) (A1) (B2) (A1)
 The electronic state of the initial guess is 1-A1.
 Requested convergence on RMS density matrix=1.00D-08 within 128 cycles.
 Requested convergence on MAX density matrix=1.00D-06.
 Requested convergence on             energy=1.00D-06.
 No special actions if energy rises.
 Keep J ints in memory in canonical form, NReq=13816122.
 Integral accuracy reduced to 1.0D-05 until final iterations.
 Initial convergence to 1.0D-05 achieved.  Increase integral accuracy.
 SCF Done:  E(RO-PBE) =  -248.180115762     A.U. after   15 cycles
             Convg  =    0.1484D-08             -V/T =  2.0091
 ExpMin= 1.61D-01 ExpMax= 4.17D+03 ExpMxC= 6.27D+02 IAcc=1 IRadAn=         1 AccDes= 0.00D+00
 HarFok:  IExCor=  205 AccDes= 0.00D+00 IRadAn=         1 IDoV=-2
 ScaDFX=  1.000000  1.000000  1.000000  1.000000
 Range of M.O.s used for correlation:     7   100
 NBasis=   100 NAE=    21 NBE=    21 NFC=     6 NFV=     0
 NROrb=     94 NOA=    15 NOB=    15 NVA=    79 NVB=    79
 Would need an additional     7800000 words for in-memory AO integral storage.
 Orbital symmetries:
       Occupied  (A1) (B2) (A1) (A1) (B2) (A1) (A1) (A1) (B2) (B2)
                 (A1) (A1) (B2) (A1) (B2) (B1) (A1) (B2) (B1) (A2)
                 (A1)
       Virtual   (B1) (A2) (A1) (B1) (B2) (A1) (A1) (B2) (A1) (B2)
                 (B2) (A1) (A1) (B2) (B2) (B1) (A1) (A1) (A1) (B2)
                 (A2) (B1) (A1) (B2) (A2) (B1) (B2) (A1) (A1) (B2)
                 (B1) (A1) (B2) (A1) (A1) (B2) (B2) (A1) (A1) (A2)
                 (B2) (B1) (A1) (A2) (B1) (B2) (B1) (A2) (A1) (A1)
                 (A1) (B2) (A1) (B2) (A1) (A2) (B2) (B1) (B2) (A1)
                 (B1) (A2) (B1) (A1) (B2) (A1) (A1) (A2) (B2) (A1)
                 (B2) (B2) (A1) (A1) (B2) (A1) (A1) (B2) (A1)
    40 initial guesses have been made.
 Convergence on wavefunction:    0.001000000000000
 Iteration     1 Dimension    40 NMult    40
 CISAX will form    40 AO SS matrices at one time.
 New state      4 was old state      7
 New state      5 was old state      4
 New state      6 was old state      8
 New state      7 was old state      9
 New state      8 was old state     10
 New state      9 was old state     12
 New state     10 was old state      6
 Iteration     2 Dimension    80 NMult    80
 New state      4 was old state      5
 New state      5 was old state      4
 New state      6 was old state     10
 New state      8 was old state      6
 No map to state      9
 New state     10 was old state      8
 Iteration     3 Dimension    90 NMult    90
 Iteration     4 Dimension   100 NMult   100
 Iteration     5 Dimension   109 NMult   109
 Iteration     6 Dimension   115 NMult   115
 Iteration     7 Dimension   120 NMult   120
 Iteration     8 Dimension   124 NMult   124
 Iteration     9 Dimension   127 NMult   127
 ***********************************************************************
 Excited states from <AA,BB:AA,BB> singles matrix:
 ***********************************************************************
 
 Ground to excited state transition electric dipole moments (Au):
       state          X           Y           Z        Dip. S.      Osc.
         1        -0.1652      0.0000      0.0000      0.0273      0.0030
         2         0.0000      0.0000      0.0000      0.0000      0.0000
         3         0.0000      0.4123      0.0000      0.1700      0.0229
         4         0.0000      0.0000      0.2984      0.0891      0.0140
         5         0.0000      0.0000      0.0000      0.0000      0.0000
         6         0.0000     -1.4303      0.0000      2.0458      0.3723
         7         0.0000      0.0000      1.3316      1.7731      0.3250
         8         0.1423      0.0000      0.0000      0.0202      0.0038
         9         0.0000      0.0000     -0.7258      0.5268      0.1003
        10         0.0679      0.0000      0.0000      0.0046      0.0009
 Ground to excited state transition velocity dipole moments (Au):
       state          X           Y           Z        Dip. S.      Osc.
         1         0.0288      0.0000      0.0000      0.0008      0.0033
         2         0.0000      0.0000      0.0000      0.0000      0.0000
         3         0.0000     -0.0835      0.0000      0.0070      0.0230
         4         0.0000      0.0000     -0.0704      0.0050      0.0140
         5         0.0000      0.0000      0.0000      0.0000      0.0000
         6         0.0000      0.3891      0.0000      0.1514      0.3697
         7         0.0000      0.0000     -0.3653      0.1335      0.3236
         8        -0.0183      0.0000      0.0000      0.0003      0.0008
         9         0.0000      0.0000      0.2026      0.0410      0.0958
        10        -0.0037      0.0000      0.0000      0.0000      0.0000
 Ground to excited state transition magnetic dipole moments (Au):
       state          X           Y           Z
         1         0.0000      0.7337      0.0000
         2         0.0000      0.0000     -0.0477
         3        -0.1668      0.0000      0.0000
         4         0.0000      0.0000      0.0000
         5         0.0000      0.0000     -0.1350
         6         0.0346      0.0000      0.0000
         7         0.0000      0.0000      0.0000
         8         0.0000     -0.3169      0.0000
         9         0.0000      0.0000      0.0000
        10         0.0000      0.5992      0.0000
 <0|del|b> * <b|rxdel|0> + <0|del|b> * <b|delr+rdel|0>
 Rotatory Strengths (R) in cgs (10**-40 erg-esu-cm/Gauss)
       state          XX          YY          ZZ    R(velocity)
         1         0.0000      0.0000      0.0000      0.0000
 Total R(velocity) tensor for State=          1
                 1             2             3 
      1   0.000000D+00 -0.350285D+02  0.000000D+00
      2   0.000000D+00  0.000000D+00  0.000000D+00
      3   0.000000D+00  0.000000D+00  0.000000D+00
 R(velocity) tensor in inp. orien. for State=          1
                 1             2             3 
      1   0.000000D+00 -0.350285D+02  0.000000D+00
      2   0.000000D+00  0.000000D+00  0.000000D+00
      3   0.000000D+00  0.000000D+00  0.000000D+00
         2         0.0000      0.0000      0.0000      0.0000
 Total R(velocity) tensor for State=          2
                 1             2             3 
      1   0.000000D+00  0.000000D+00  0.000000D+00
      2   0.000000D+00  0.000000D+00  0.000000D+00
      3   0.000000D+00  0.000000D+00  0.000000D+00
 R(velocity) tensor in inp. orien. for State=          2
                 1             2             3 
      1   0.000000D+00  0.000000D+00  0.000000D+00
      2   0.000000D+00  0.000000D+00  0.000000D+00
      3   0.000000D+00  0.000000D+00  0.000000D+00
         3         0.0000      0.0000      0.0000      0.0000
 Total R(velocity) tensor for State=          3
                 1             2             3 
      1   0.000000D+00  0.000000D+00  0.000000D+00
      2  -0.328850D+02  0.000000D+00  0.000000D+00
      3   0.000000D+00  0.000000D+00  0.000000D+00
 R(velocity) tensor in inp. orien. for State=          3
                 1             2             3 
      1   0.000000D+00  0.000000D+00  0.000000D+00
      2  -0.328850D+02  0.000000D+00  0.000000D+00
      3   0.000000D+00  0.000000D+00  0.000000D+00
         4         0.0000      0.0000      0.0000      0.0000
 Total R(velocity) tensor for State=          4
                 1             2             3 
      1   0.000000D+00 -0.195513D+01  0.000000D+00
      2  -0.149351D+02  0.000000D+00  0.000000D+00
      3   0.000000D+00  0.000000D+00  0.000000D+00
 R(velocity) tensor in inp. orien. for State=          4
                 1             2             3 
      1   0.000000D+00 -0.195513D+01  0.000000D+00
      2  -0.149351D+02  0.000000D+00  0.000000D+00
      3   0.000000D+00  0.000000D+00  0.000000D+00
         5         0.0000      0.0000      0.0000      0.0000
 Total R(velocity) tensor for State=          5
                 1             2             3 
      1   0.000000D+00  0.000000D+00  0.000000D+00
      2   0.000000D+00  0.000000D+00  0.000000D+00
      3   0.000000D+00  0.000000D+00  0.000000D+00
 R(velocity) tensor in inp. orien. for State=          5
                 1             2             3 
      1   0.000000D+00  0.000000D+00  0.000000D+00
      2   0.000000D+00  0.000000D+00  0.000000D+00
      3   0.000000D+00  0.000000D+00  0.000000D+00
         6         0.0000      0.0000      0.0000      0.0000
 Total R(velocity) tensor for State=          6
                 1             2             3 
      1   0.000000D+00  0.000000D+00  0.000000D+00
      2   0.614911D+01  0.000000D+00  0.000000D+00
      3   0.000000D+00  0.000000D+00  0.000000D+00
 R(velocity) tensor in inp. orien. for State=          6
                 1             2             3 
      1   0.000000D+00  0.000000D+00  0.000000D+00
      2   0.614911D+01  0.000000D+00  0.000000D+00
      3   0.000000D+00  0.000000D+00  0.000000D+00
         7         0.0000      0.0000      0.0000      0.0000
 Total R(velocity) tensor for State=          7
                 1             2             3 
      1   0.000000D+00  0.232797D+02  0.000000D+00
      2   0.217014D+03  0.000000D+00  0.000000D+00
      3   0.000000D+00  0.000000D+00  0.000000D+00
 R(velocity) tensor in inp. orien. for State=          7
                 1             2             3 
      1   0.000000D+00  0.232797D+02  0.000000D+00
      2   0.217014D+03  0.000000D+00  0.000000D+00
      3   0.000000D+00  0.000000D+00  0.000000D+00
         8         0.0000      0.0000      0.0000      0.0000
 Total R(velocity) tensor for State=          8
                 1             2             3 
      1   0.000000D+00 -0.628410D+01  0.000000D+00
      2   0.000000D+00  0.000000D+00  0.000000D+00
      3   0.000000D+00  0.000000D+00  0.000000D+00
 R(velocity) tensor in inp. orien. for State=          8
                 1             2             3 
      1   0.000000D+00 -0.628410D+01  0.000000D+00
      2   0.000000D+00  0.000000D+00  0.000000D+00
      3   0.000000D+00  0.000000D+00  0.000000D+00
         9         0.0000      0.0000      0.0000      0.0000
 Total R(velocity) tensor for State=          9
                 1             2             3 
      1   0.000000D+00  0.316512D+01  0.000000D+00
      2  -0.134888D+03  0.000000D+00  0.000000D+00
      3   0.000000D+00  0.000000D+00  0.000000D+00
 R(velocity) tensor in inp. orien. for State=          9
                 1             2             3 
      1   0.000000D+00  0.316512D+01  0.000000D+00
      2  -0.134888D+03  0.000000D+00  0.000000D+00
      3   0.000000D+00  0.000000D+00  0.000000D+00
        10         0.0000      0.0000      0.0000      0.0000
 Total R(velocity) tensor for State=         10
                 1             2             3 
      1   0.000000D+00  0.201210D+01  0.000000D+00
      2   0.000000D+00  0.000000D+00  0.000000D+00
      3   0.000000D+00  0.000000D+00  0.000000D+00
 R(velocity) tensor in inp. orien. for State=         10
                 1             2             3 
      1   0.000000D+00  0.201210D+01  0.000000D+00
      2   0.000000D+00  0.000000D+00  0.000000D+00
      3   0.000000D+00  0.000000D+00  0.000000D+00
 1/2[<0|r|b>*<b|rxdel|0> + (<0|rxdel|b>*<b|r|0>)*]
 Rotatory Strengths (R) in cgs (10**-40 erg-esu-cm/Gauss)
       state          XX          YY          ZZ     R(length)     R(au)
         1         0.0000      0.0000      0.0000      0.0000      0.0000
         2         0.0000      0.0000      0.0000      0.0000      0.0000
         3         0.0000      0.0000      0.0000      0.0000      0.0000
         4         0.0000      0.0000      0.0000      0.0000      0.0000
         5         0.0000      0.0000      0.0000      0.0000      0.0000
         6         0.0000      0.0000      0.0000      0.0000      0.0000
         7         0.0000      0.0000      0.0000      0.0000      0.0000
         8         0.0000      0.0000      0.0000      0.0000      0.0000
         9         0.0000      0.0000      0.0000      0.0000      0.0000
        10         0.0000      0.0000      0.0000      0.0000      0.0000
  1/2[<0|del|b>*<b|r|0> + (<0|r|b>*<b|del|0>)*] (Au)
       state          X           Y           Z        Dip. S.   Osc.(frdel)
         1        -0.0048      0.0000      0.0000      0.0048      0.0032
         2         0.0000      0.0000      0.0000      0.0000      0.0000
         3         0.0000     -0.0344      0.0000      0.0344      0.0230
         4         0.0000      0.0000     -0.0210      0.0210      0.0140
         5         0.0000      0.0000      0.0000      0.0000      0.0000
         6         0.0000     -0.5565      0.0000      0.5565      0.3710
         7         0.0000      0.0000     -0.4865      0.4865      0.3243
         8        -0.0026      0.0000      0.0000      0.0026      0.0017
         9         0.0000      0.0000     -0.1470      0.1470      0.0980
        10        -0.0002      0.0000      0.0000      0.0002      0.0002
 Ground to excited state transition densities written to RWF  633

 Excitation energies and oscillator strengths:
 
 Excited State   1:      Singlet-B1     4.5461 eV  272.73 nm  f=0.0030  <S**2>=0.000
      21 -> 22         0.70618
 This state for optimization and/or second-order correction.
 Copying the excited state density for this state as the 1-particle RhoCI density.
 
 Excited State   2:      Singlet-A2     4.6236 eV  268.16 nm  f=0.0000  <S**2>=0.000
      21 -> 23         0.70698
 
 Excited State   3:      Singlet-B2     5.5075 eV  225.12 nm  f=0.0229  <S**2>=0.000
      19 -> 23         0.37667
      20 -> 22         0.59742
 
 Excited State   4:      Singlet-A1     6.4189 eV  193.16 nm  f=0.0140  <S**2>=0.000
      19 -> 22        -0.41835
      20 -> 23         0.56312
 
 Excited State   5:      Singlet-A2     7.2508 eV  170.99 nm  f=0.0000  <S**2>=0.000
      18 -> 22         0.70632
 
 Excited State   6:      Singlet-B2     7.4286 eV  166.90 nm  f=0.3723  <S**2>=0.000
      19 -> 23         0.58642
      20 -> 22        -0.36654
 
 Excited State   7:      Singlet-A1     7.4820 eV  165.71 nm  f=0.3250  <S**2>=0.000
      19 -> 22         0.50090
      20 -> 23         0.37989
      21 -> 24         0.31091
 
 Excited State   8:      Singlet-B1     7.6530 eV  162.01 nm  f=0.0038  <S**2>=0.000
      18 -> 23         0.70621
 
 Excited State   9:      Singlet-A1     7.7717 eV  159.53 nm  f=0.1003  <S**2>=0.000
      16 -> 22        -0.10536
      19 -> 22        -0.24578
      20 -> 23        -0.17533
      21 -> 24         0.62615
 
 Excited State  10:      Singlet-B1     8.3380 eV  148.70 nm  f=0.0009  <S**2>=0.000
      17 -> 22         0.67524
      21 -> 25        -0.20536
 SavETr:  write IOETrn=   770 NScale= 10 NData=  16 NLR=1 LETran=     190.

 **********************************************************************

            Population analysis using the SCF density.

 **********************************************************************

 Orbital symmetries:
       Occupied  (A1) (B2) (A1) (A1) (B2) (A1) (A1) (A1) (B2) (B2)
                 (A1) (A1) (B2) (A1) (B2) (B1) (A1) (B2) (B1) (A2)
                 (A1)
       Virtual   (B1) (A2) (A1) (B1) (B2) (A1) (A1) (B2) (A1) (B2)
                 (B2) (A1) (A1) (B2) (B2) (B1) (A1) (A1) (A1) (B2)
                 (A2) (B1) (A1) (B2) (A2) (B1) (B2) (A1) (A1) (B2)
                 (B1) (A1) (B2) (A1) (A1) (B2) (B2) (A1) (A1) (A2)
                 (B2) (B1) (A1) (A2) (B1) (B2) (B1) (A2) (A1) (A1)
                 (A1) (B2) (A1) (B2) (A1) (A2) (B2) (B1) (B2) (A1)
                 (B1) (A2) (B1) (A1) (B2) (A1) (A1) (A2) (B2) (A1)
                 (B2) (B2) (A1) (A1) (B2) (A1) (A1) (B2) (A1)
 The electronic state is 1-A1.
 Alpha  occ. eigenvalues --  -14.00013  -9.93140  -9.93139  -9.92233  -9.91272
 Alpha  occ. eigenvalues --   -9.91271  -0.86873  -0.73887  -0.69693  -0.57322
 Alpha  occ. eigenvalues --   -0.57045  -0.47620  -0.42770  -0.42163  -0.37865
 Alpha  occ. eigenvalues --   -0.35577  -0.35488  -0.31671  -0.25957  -0.23626
 Alpha  occ. eigenvalues --   -0.20890
 Alpha virt. eigenvalues --   -0.05318  -0.04026   0.07029   0.10362   0.11718
 Alpha virt. eigenvalues --    0.13429   0.15346   0.15476   0.21046   0.26421
 Alpha virt. eigenvalues --    0.28291   0.28719   0.41641   0.44326   0.50381
 Alpha virt. eigenvalues --    0.50599   0.55353   0.56312   0.56595   0.57497
 Alpha virt. eigenvalues --    0.57566   0.58585   0.61003   0.63574   0.64171
 Alpha virt. eigenvalues --    0.67112   0.78259   0.78770   0.80915   0.81356
 Alpha virt. eigenvalues --    0.83553   0.84655   0.89026   0.89054   0.93231
 Alpha virt. eigenvalues --    1.00738   1.03596   1.07153   1.12344   1.16362
 Alpha virt. eigenvalues --    1.17017   1.29270   1.32275   1.38419   1.39059
 Alpha virt. eigenvalues --    1.41710   1.42160   1.43583   1.62650   1.70381
 Alpha virt. eigenvalues --    1.73144   1.74172   1.83496   1.87605   1.96579
 Alpha virt. eigenvalues --    2.02868   2.04652   2.08148   2.08521   2.10225
 Alpha virt. eigenvalues --    2.19112   2.21365   2.28228   2.42835   2.45235
 Alpha virt. eigenvalues --    2.55040   2.56352   2.57947   2.60945   2.67833
 Alpha virt. eigenvalues --    2.69237   2.95348   3.25664   3.96857   4.03916
 Alpha virt. eigenvalues --    4.05594   4.16707   4.25516   4.51105
     Molecular Orbital Coefficients:
                           1         2         3         4         5
                        (A1)--O   (B2)--O   (A1)--O   (A1)--O   (B2)--O
     Eigenvalues --   -14.00013  -9.93140  -9.93139  -9.92233  -9.91272
   1 1   C  1S          0.00004   0.00667   0.00676   0.01865   0.70277
   2        2S          0.00023  -0.00010   0.00016   0.00008   0.03043
   3        2PX         0.00000   0.00000   0.00000   0.00000   0.00000
   4        2PY         0.00001   0.00000   0.00002   0.00062  -0.00041
   5        2PZ        -0.00005  -0.00043  -0.00056   0.00027   0.00014
   6        3S         -0.00334   0.00569   0.00064   0.00899  -0.01370
   7        3PX         0.00000   0.00000   0.00000   0.00000   0.00000
   8        3PY         0.00194  -0.00013   0.00211  -0.00445   0.00233
   9        3PZ        -0.00103   0.00345   0.00077   0.00022  -0.00112
  10        4XX         0.00004  -0.00015  -0.00011  -0.00036  -0.00417
  11        4YY         0.00001  -0.00023  -0.00024  -0.00078  -0.00398
  12        4ZZ        -0.00003  -0.00062  -0.00074  -0.00060  -0.00382
  13        4XY         0.00000   0.00000   0.00000   0.00000   0.00000
  14        4XZ         0.00000   0.00000   0.00000   0.00000   0.00000
  15        4YZ         0.00008  -0.00008  -0.00005  -0.00036   0.00010
  16 2   C  1S          0.00001   0.70279   0.70267  -0.00039  -0.00694
  17        2S          0.00020   0.03032   0.02953  -0.00016  -0.00067
  18        2PX         0.00000   0.00000   0.00000   0.00000   0.00000
  19        2PY        -0.00002  -0.00064  -0.00053   0.00005   0.00001
  20        2PZ         0.00001  -0.00009   0.00008   0.00010   0.00046
  21        3S          0.00369  -0.01206  -0.00773  -0.00252   0.00502
  22        3PX         0.00000   0.00000   0.00000   0.00000   0.00000
  23        3PY        -0.00197   0.00101  -0.00228   0.00091  -0.00092
  24        3PZ        -0.00108   0.00433   0.00011   0.00061  -0.00191
  25        4XX        -0.00008  -0.00417  -0.00444  -0.00005  -0.00007
  26        4YY        -0.00034  -0.00386  -0.00363   0.00005  -0.00012
  27        4ZZ        -0.00008  -0.00378  -0.00367   0.00008  -0.00059
  28        4XY         0.00000   0.00000   0.00000   0.00000   0.00000
  29        4XZ         0.00000   0.00000   0.00000   0.00000   0.00000
  30        4YZ         0.00028  -0.00029  -0.00037   0.00001   0.00008
  31 3   N  1S          0.99350   0.00000  -0.00013  -0.00006   0.00000
  32        2S          0.03349   0.00000   0.00011  -0.00023   0.00000
  33        2PX         0.00000   0.00000   0.00000   0.00000   0.00000
  34        2PY         0.00000  -0.00051   0.00000   0.00000   0.00001
  35        2PZ        -0.00169   0.00000   0.00047   0.00004   0.00000
  36        3S         -0.00428   0.00000  -0.00129   0.00217   0.00000
  37        3PX         0.00000   0.00000   0.00000   0.00000   0.00000
  38        3PY         0.00000  -0.00206   0.00000   0.00000  -0.00027
  39        3PZ         0.00271   0.00000   0.00158  -0.00074   0.00000
  40        4XX        -0.00624   0.00000   0.00035  -0.00014   0.00000
  41        4YY        -0.00600   0.00000  -0.00113  -0.00010   0.00000
  42        4ZZ        -0.00638   0.00000  -0.00046  -0.00011   0.00000
  43        4XY         0.00000   0.00000   0.00000   0.00000   0.00000
  44        4XZ         0.00000   0.00000   0.00000   0.00000   0.00000
  45        4YZ         0.00000   0.00062   0.00000   0.00000  -0.00004
  46 4   C  1S          0.00001  -0.70279   0.70267  -0.00039   0.00694
  47        2S          0.00020  -0.03032   0.02953  -0.00016   0.00067
  48        2PX         0.00000   0.00000   0.00000   0.00000   0.00000
  49        2PY         0.00002  -0.00064   0.00053  -0.00005   0.00001
  50        2PZ         0.00001   0.00009   0.00008   0.00010  -0.00046
  51        3S          0.00369   0.01206  -0.00773  -0.00252  -0.00502
  52        3PX         0.00000   0.00000   0.00000   0.00000   0.00000
  53        3PY         0.00197   0.00101   0.00228  -0.00091  -0.00092
  54        3PZ        -0.00108  -0.00433   0.00011   0.00061   0.00191
  55        4XX        -0.00008   0.00417  -0.00444  -0.00005   0.00007
  56        4YY        -0.00034   0.00386  -0.00363   0.00005   0.00012
  57        4ZZ        -0.00008   0.00378  -0.00367   0.00008   0.00059
  58        4XY         0.00000   0.00000   0.00000   0.00000   0.00000
  59        4XZ         0.00000   0.00000   0.00000   0.00000   0.00000
  60        4YZ        -0.00028  -0.00029   0.00037  -0.00001   0.00008
  61 5   C  1S          0.00004  -0.00667   0.00676   0.01865  -0.70277
  62        2S          0.00023   0.00010   0.00016   0.00008  -0.03043
  63        2PX         0.00000   0.00000   0.00000   0.00000   0.00000
  64        2PY        -0.00001   0.00000  -0.00002  -0.00062  -0.00041
  65        2PZ        -0.00005   0.00043  -0.00056   0.00027  -0.00014
  66        3S         -0.00334  -0.00569   0.00064   0.00899   0.01370
  67        3PX         0.00000   0.00000   0.00000   0.00000   0.00000
  68        3PY        -0.00194  -0.00013  -0.00211   0.00445   0.00233
  69        3PZ        -0.00103  -0.00345   0.00077   0.00022   0.00112
  70        4XX         0.00004   0.00015  -0.00011  -0.00036   0.00417
  71        4YY         0.00001   0.00023  -0.00024  -0.00078   0.00398
  72        4ZZ        -0.00003   0.00062  -0.00074  -0.00060   0.00382
  73        4XY         0.00000   0.00000   0.00000   0.00000   0.00000
  74        4XZ         0.00000   0.00000   0.00000   0.00000   0.00000
  75        4YZ        -0.00008  -0.00008   0.00005   0.00036   0.00010
  76 6   C  1S         -0.00003   0.00000   0.00022   0.99358   0.00000
  77        2S         -0.00015   0.00000  -0.00047   0.04283   0.00000
  78        2PX         0.00000   0.00000   0.00000   0.00000   0.00000
  79        2PY         0.00000  -0.00009   0.00000   0.00000  -0.00079
  80        2PZ        -0.00002   0.00000  -0.00003   0.00052   0.00000
  81        3S          0.00319   0.00000   0.00343  -0.02258   0.00000
  82        3PX         0.00000   0.00000   0.00000   0.00000   0.00000
  83        3PY         0.00000   0.00119   0.00000   0.00000   0.00276
  84        3PZ         0.00189   0.00000   0.00219  -0.00527   0.00000
  85        4XX        -0.00006   0.00000  -0.00014  -0.00587   0.00000
  86        4YY        -0.00002   0.00000   0.00019  -0.00526   0.00000
  87        4ZZ        -0.00002   0.00000   0.00013  -0.00557   0.00000
  88        4XY         0.00000   0.00000   0.00000   0.00000   0.00000
  89        4XZ         0.00000   0.00000   0.00000   0.00000   0.00000
  90        4YZ         0.00000   0.00009   0.00000   0.00000  -0.00042
  91 7   H  1S         -0.00007  -0.00009  -0.00019  -0.00001  -0.00051
  92        2S         -0.00056   0.00019  -0.00066   0.00077   0.00116
  93 8   H  1S          0.00002  -0.00063  -0.00034  -0.00002  -0.00003
  94        2S          0.00048   0.00071   0.00257   0.00000   0.00021
  95 9   H  1S          0.00002   0.00063  -0.00034  -0.00002   0.00003
  96        2S          0.00048  -0.00071   0.00257   0.00000  -0.00021
  97 10  H  1S         -0.00007   0.00009  -0.00019  -0.00001   0.00051
  98        2S         -0.00056  -0.00019  -0.00066   0.00077  -0.00116
  99 11  H  1S          0.00005   0.00000   0.00004  -0.00077   0.00000
 100        2S          0.00045   0.00000   0.00077   0.00145   0.00000
                           6         7         8         9        10
                        (A1)--O   (A1)--O   (A1)--O   (B2)--O   (B2)--O
     Eigenvalues --    -9.91271  -0.86873  -0.73887  -0.69693  -0.57322
   1 1   C  1S          0.70258  -0.04752  -0.10458  -0.10697   0.09393
   2        2S          0.03059   0.08297   0.19799   0.20628  -0.18472
   3        2PX         0.00000   0.00000   0.00000   0.00000   0.00000
   4        2PY        -0.00034  -0.02900  -0.06866   0.00770  -0.00894
   5        2PZ         0.00019   0.03283  -0.03231   0.05795   0.08736
   6        3S         -0.02077   0.08749   0.13058   0.15383  -0.17476
   7        3PX         0.00000   0.00000   0.00000   0.00000   0.00000
   8        3PY         0.00593  -0.04089   0.00552   0.00760  -0.02327
   9        3PZ        -0.00298   0.01350  -0.00730  -0.00555   0.02622
  10        4XX        -0.00411  -0.00409  -0.00538  -0.00437   0.00251
  11        4YY        -0.00378   0.00331   0.01093   0.00332  -0.00705
  12        4ZZ        -0.00373   0.00517   0.00229   0.00940  -0.00163
  13        4XY         0.00000   0.00000   0.00000   0.00000   0.00000
  14        4XZ         0.00000   0.00000   0.00000   0.00000   0.00000
  15        4YZ         0.00015  -0.00209   0.00265  -0.00147   0.00100
  16 2   C  1S         -0.00701  -0.09749   0.00510  -0.11687  -0.08013
  17        2S         -0.00082   0.18505  -0.01302   0.23024   0.16552
  18        2PX         0.00000   0.00000   0.00000   0.00000   0.00000
  19        2PY        -0.00003  -0.10076   0.05399   0.00501  -0.03496
  20        2PZ         0.00050   0.02383  -0.09969  -0.04059   0.14886
  21        3S          0.00990   0.04309   0.01391   0.17255   0.14631
  22        3PX         0.00000   0.00000   0.00000   0.00000   0.00000
  23        3PY        -0.00325   0.03123  -0.01468   0.01598   0.01222
  24        3PZ        -0.00361   0.00153  -0.01610  -0.01725   0.03415
  25        4XX        -0.00015  -0.00762   0.00063  -0.00541  -0.00343
  26        4YY        -0.00010   0.01467  -0.00720   0.00222   0.00525
  27        4ZZ        -0.00053   0.00225   0.00582   0.01087   0.00104
  28        4XY         0.00000   0.00000   0.00000   0.00000   0.00000
  29        4XZ         0.00000   0.00000   0.00000   0.00000   0.00000
  30        4YZ         0.00009  -0.00617   0.00748  -0.00104  -0.00266
  31 3   N  1S          0.00017  -0.15766   0.08751   0.00000   0.00000
  32        2S          0.00057   0.31691  -0.18521   0.00000   0.00000
  33        2PX         0.00000   0.00000   0.00000   0.00000   0.00000
  34        2PY         0.00000   0.00000   0.00000   0.14353   0.25664
  35        2PZ        -0.00006  -0.12157   0.03802   0.00000   0.00000
  36        3S         -0.00706   0.35609  -0.20836   0.00000   0.00000
  37        3PX         0.00000   0.00000   0.00000   0.00000   0.00000
  38        3PY         0.00000   0.00000   0.00000   0.05290   0.08641
  39        3PZ         0.00276  -0.07529   0.02673   0.00000   0.00000
  40        4XX         0.00030  -0.01030   0.00199   0.00000   0.00000
  41        4YY         0.00047   0.00410  -0.00377   0.00000   0.00000
  42        4ZZ         0.00033   0.00247   0.00305   0.00000   0.00000
  43        4XY         0.00000   0.00000   0.00000   0.00000   0.00000
  44        4XZ         0.00000   0.00000   0.00000   0.00000   0.00000
  45        4YZ         0.00000   0.00000   0.00000  -0.01246  -0.01354
  46 4   C  1S         -0.00701  -0.09749   0.00510   0.11687   0.08013
  47        2S         -0.00082   0.18505  -0.01302  -0.23024  -0.16552
  48        2PX         0.00000   0.00000   0.00000   0.00000   0.00000
  49        2PY         0.00003   0.10076  -0.05399   0.00501  -0.03496
  50        2PZ         0.00050   0.02383  -0.09969   0.04059  -0.14886
  51        3S          0.00990   0.04309   0.01391  -0.17255  -0.14631
  52        3PX         0.00000   0.00000   0.00000   0.00000   0.00000
  53        3PY         0.00325  -0.03123   0.01468   0.01598   0.01222
  54        3PZ        -0.00361   0.00153  -0.01610   0.01725  -0.03415
  55        4XX        -0.00015  -0.00762   0.00063   0.00541   0.00343
  56        4YY        -0.00010   0.01467  -0.00720  -0.00222  -0.00525
  57        4ZZ        -0.00053   0.00225   0.00582  -0.01087  -0.00104
  58        4XY         0.00000   0.00000   0.00000   0.00000   0.00000
  59        4XZ         0.00000   0.00000   0.00000   0.00000   0.00000
  60        4YZ        -0.00009   0.00617  -0.00748  -0.00104  -0.00266
  61 5   C  1S          0.70258  -0.04752  -0.10458   0.10697  -0.09393
  62        2S          0.03059   0.08297   0.19799  -0.20628   0.18472
  63        2PX         0.00000   0.00000   0.00000   0.00000   0.00000
  64        2PY         0.00034   0.02900   0.06866   0.00770  -0.00894
  65        2PZ         0.00019   0.03283  -0.03231  -0.05795  -0.08736
  66        3S         -0.02077   0.08749   0.13058  -0.15383   0.17476
  67        3PX         0.00000   0.00000   0.00000   0.00000   0.00000
  68        3PY        -0.00593   0.04089  -0.00552   0.00760  -0.02327
  69        3PZ        -0.00298   0.01350  -0.00730   0.00555  -0.02622
  70        4XX        -0.00411  -0.00409  -0.00538   0.00437  -0.00251
  71        4YY        -0.00378   0.00331   0.01093  -0.00332   0.00705
  72        4ZZ        -0.00373   0.00517   0.00229  -0.00940   0.00163
  73        4XY         0.00000   0.00000   0.00000   0.00000   0.00000
  74        4XZ         0.00000   0.00000   0.00000   0.00000   0.00000
  75        4YZ        -0.00015   0.00209  -0.00265  -0.00147   0.00100
  76 6   C  1S         -0.02705  -0.03801  -0.14576   0.00000   0.00000
  77        2S         -0.00226   0.07225   0.27607   0.00000   0.00000
  78        2PX         0.00000   0.00000   0.00000   0.00000   0.00000
  79        2PY         0.00000   0.00000   0.00000   0.10502  -0.18573
  80        2PZ        -0.00060   0.03407   0.05896   0.00000   0.00000
  81        3S          0.01645  -0.01394   0.22113   0.00000   0.00000
  82        3PX         0.00000   0.00000   0.00000   0.00000   0.00000
  83        3PY         0.00000   0.00000   0.00000   0.00938  -0.05023
  84        3PZ         0.00727  -0.02157   0.01223   0.00000   0.00000
  85        4XX        -0.00020  -0.00235  -0.00758   0.00000   0.00000
  86        4YY        -0.00101   0.00134   0.00921   0.00000   0.00000
  87        4ZZ        -0.00038   0.00452   0.00940   0.00000   0.00000
  88        4XY         0.00000   0.00000   0.00000   0.00000   0.00000
  89        4XZ         0.00000   0.00000   0.00000   0.00000   0.00000
  90        4YZ         0.00000   0.00000   0.00000   0.00777  -0.00638
  91 7   H  1S         -0.00063   0.01427   0.04808   0.06179  -0.09434
  92        2S          0.00041   0.01228   0.00235   0.00653  -0.02605
  93 8   H  1S          0.00003   0.02853  -0.00463   0.06724   0.08086
  94        2S          0.00087  -0.00732   0.00591   0.00854   0.02008
  95 9   H  1S          0.00003   0.02853  -0.00463  -0.06724  -0.08086
  96        2S          0.00087  -0.00732   0.00591  -0.00854  -0.02008
  97 10  H  1S         -0.00063   0.01427   0.04808  -0.06179   0.09434
  98        2S          0.00041   0.01228   0.00235  -0.00653   0.02605
  99 11  H  1S          0.00005   0.01014   0.06939   0.00000   0.00000
 100        2S          0.00127  -0.00507   0.00978   0.00000   0.00000
                          11        12        13        14        15
                        (A1)--O   (A1)--O   (B2)--O   (A1)--O   (B2)--O
     Eigenvalues --    -0.57045  -0.47620  -0.42770  -0.42163  -0.37865
   1 1   C  1S          0.04780  -0.00431  -0.00908  -0.05358   0.02049
   2        2S         -0.09503   0.00756   0.02019   0.10596  -0.04686
   3        2PX         0.00000   0.00000   0.00000   0.00000   0.00000
   4        2PY        -0.11168  -0.16748  -0.10047   0.18767   0.22558
   5        2PZ        -0.15367   0.10266  -0.24189  -0.09926  -0.16069
   6        3S         -0.06777  -0.00931   0.01170   0.16357  -0.06441
   7        3PX         0.00000   0.00000   0.00000   0.00000   0.00000
   8        3PY        -0.04899  -0.06120  -0.01980   0.06783   0.09633
   9        3PZ        -0.02827   0.04301  -0.08796  -0.04452  -0.04831
  10        4XX         0.00115  -0.00150   0.00015  -0.00039   0.00033
  11        4YY         0.00179   0.00161   0.00276   0.00775   0.01146
  12        4ZZ        -0.00515  -0.00617  -0.00276  -0.00101  -0.00383
  13        4XY         0.00000   0.00000   0.00000   0.00000   0.00000
  14        4XZ         0.00000   0.00000   0.00000   0.00000   0.00000
  15        4YZ         0.00472  -0.00503  -0.00049  -0.01365  -0.00074
  16 2   C  1S          0.06975   0.02001   0.01540   0.05420   0.01927
  17        2S         -0.13783  -0.04167  -0.02821  -0.10933  -0.04606
  18        2PX         0.00000   0.00000   0.00000   0.00000   0.00000
  19        2PY        -0.12876  -0.15081  -0.17339  -0.14216   0.18613
  20        2PZ         0.11845  -0.13930   0.21453  -0.03864   0.17980
  21        3S         -0.14687  -0.06704  -0.01141  -0.15589  -0.04268
  22        3PX         0.00000   0.00000   0.00000   0.00000   0.00000
  23        3PY        -0.03141  -0.06892  -0.07737  -0.04478   0.07721
  24        3PZ         0.02765  -0.04810   0.06876  -0.01720   0.05419
  25        4XX         0.00083  -0.00113  -0.00238  -0.00041   0.00050
  26        4YY         0.00221  -0.00151  -0.00148  -0.00097   0.01136
  27        4ZZ        -0.00701  -0.00193   0.00102  -0.00210  -0.00390
  28        4XY         0.00000   0.00000   0.00000   0.00000   0.00000
  29        4XZ         0.00000   0.00000   0.00000   0.00000   0.00000
  30        4YZ        -0.00610   0.00410  -0.00728  -0.01686   0.00081
  31 3   N  1S         -0.07002   0.02034   0.00000  -0.04938   0.00000
  32        2S          0.15584  -0.04657   0.00000   0.11110   0.00000
  33        2PX         0.00000   0.00000   0.00000   0.00000   0.00000
  34        2PY         0.00000   0.00000   0.29183   0.00000  -0.05699
  35        2PZ        -0.01375  -0.11041   0.00000  -0.04074   0.00000
  36        3S          0.17820  -0.07028   0.00000   0.17703   0.00000
  37        3PX         0.00000   0.00000   0.00000   0.00000   0.00000
  38        3PY         0.00000   0.00000   0.09458   0.00000  -0.01483
  39        3PZ        -0.00684  -0.04861   0.00000  -0.02524   0.00000
  40        4XX         0.00047  -0.00362   0.00000  -0.00001   0.00000
  41        4YY        -0.00107  -0.01371   0.00000  -0.01076   0.00000
  42        4ZZ        -0.00322   0.01565   0.00000   0.00231   0.00000
  43        4XY         0.00000   0.00000   0.00000   0.00000   0.00000
  44        4XZ         0.00000   0.00000   0.00000   0.00000   0.00000
  45        4YZ         0.00000   0.00000  -0.01007   0.00000   0.01439
  46 4   C  1S          0.06975   0.02001  -0.01540   0.05420  -0.01927
  47        2S         -0.13783  -0.04167   0.02821  -0.10933   0.04606
  48        2PX         0.00000   0.00000   0.00000   0.00000   0.00000
  49        2PY         0.12876   0.15081  -0.17339   0.14216   0.18613
  50        2PZ         0.11845  -0.13930  -0.21453  -0.03864  -0.17980
  51        3S         -0.14687  -0.06704   0.01141  -0.15589   0.04268
  52        3PX         0.00000   0.00000   0.00000   0.00000   0.00000
  53        3PY         0.03141   0.06892  -0.07737   0.04478   0.07721
  54        3PZ         0.02765  -0.04810  -0.06876  -0.01720  -0.05419
  55        4XX         0.00083  -0.00113   0.00238  -0.00041  -0.00050
  56        4YY         0.00221  -0.00151   0.00148  -0.00097  -0.01136
  57        4ZZ        -0.00701  -0.00193  -0.00102  -0.00210   0.00390
  58        4XY         0.00000   0.00000   0.00000   0.00000   0.00000
  59        4XZ         0.00000   0.00000   0.00000   0.00000   0.00000
  60        4YZ         0.00610  -0.00410  -0.00728   0.01686   0.00081
  61 5   C  1S          0.04780  -0.00431   0.00908  -0.05358  -0.02049
  62        2S         -0.09503   0.00756  -0.02019   0.10596   0.04686
  63        2PX         0.00000   0.00000   0.00000   0.00000   0.00000
  64        2PY         0.11168   0.16748  -0.10047  -0.18767   0.22558
  65        2PZ        -0.15367   0.10266   0.24189  -0.09926   0.16069
  66        3S         -0.06777  -0.00931  -0.01170   0.16357   0.06441
  67        3PX         0.00000   0.00000   0.00000   0.00000   0.00000
  68        3PY         0.04899   0.06120  -0.01980  -0.06783   0.09633
  69        3PZ        -0.02827   0.04301   0.08796  -0.04452   0.04831
  70        4XX         0.00115  -0.00150  -0.00015  -0.00039  -0.00033
  71        4YY         0.00179   0.00161  -0.00276   0.00775  -0.01146
  72        4ZZ        -0.00515  -0.00617   0.00276  -0.00101   0.00383
  73        4XY         0.00000   0.00000   0.00000   0.00000   0.00000
  74        4XZ         0.00000   0.00000   0.00000   0.00000   0.00000
  75        4YZ        -0.00472   0.00503  -0.00049   0.01365  -0.00074
  76 6   C  1S         -0.11478   0.02267   0.00000   0.05951   0.00000
  77        2S          0.23051  -0.04678   0.00000  -0.12035   0.00000
  78        2PX         0.00000   0.00000   0.00000   0.00000   0.00000
  79        2PY         0.00000   0.00000   0.26136   0.00000  -0.09725
  80        2PZ        -0.07302   0.25057   0.00000   0.00708   0.00000
  81        3S          0.18966  -0.06862   0.00000  -0.17055   0.00000
  82        3PX         0.00000   0.00000   0.00000   0.00000   0.00000
  83        3PY         0.00000   0.00000   0.09706   0.00000  -0.00091
  84        3PZ        -0.06175   0.10100   0.00000   0.00083   0.00000
  85        4XX        -0.00237  -0.00111   0.00000   0.00108   0.00000
  86        4YY         0.00179  -0.00556   0.00000   0.01209   0.00000
  87        4ZZ         0.00795  -0.00059   0.00000  -0.01291   0.00000
  88        4XY         0.00000   0.00000   0.00000   0.00000   0.00000
  89        4XZ         0.00000   0.00000   0.00000   0.00000   0.00000
  90        4YZ         0.00000   0.00000   0.00154   0.00000  -0.01500
  91 7   H  1S         -0.04859  -0.09509   0.02416   0.18293   0.15467
  92        2S         -0.01046  -0.04803   0.00956   0.11270   0.12491
  93 8   H  1S         -0.07281  -0.11578  -0.03522  -0.13731   0.13575
  94        2S         -0.02441  -0.04995  -0.01792  -0.08241   0.10627
  95 9   H  1S         -0.07281  -0.11578   0.03522  -0.13731  -0.13575
  96        2S         -0.02441  -0.04995   0.01792  -0.08241  -0.10627
  97 10  H  1S         -0.04859  -0.09509  -0.02416   0.18293  -0.15467
  98        2S         -0.01046  -0.04803  -0.00956   0.11270  -0.12491
  99 11  H  1S          0.12227  -0.14953   0.00000  -0.07076   0.00000
 100        2S          0.02973  -0.07366   0.00000  -0.03876   0.00000
                          16        17        18        19        20
                        (B1)--O   (A1)--O   (B2)--O   (B1)--O   (A2)--O
     Eigenvalues --    -0.35577  -0.35488  -0.31671  -0.25957  -0.23626
   1 1   C  1S          0.00000  -0.02082   0.00194   0.00000   0.00000
   2        2S          0.00000   0.04241   0.00123   0.00000   0.00000
   3        2PX         0.18832   0.00000   0.00000   0.21049   0.29893
   4        2PY         0.00000  -0.08865  -0.22972   0.00000   0.00000
   5        2PZ         0.00000  -0.16676  -0.06487   0.00000   0.00000
   6        3S          0.00000   0.08827  -0.04166   0.00000   0.00000
   7        3PX         0.10246   0.00000   0.00000   0.14189   0.21162
   8        3PY         0.00000  -0.02586  -0.08772   0.00000   0.00000
   9        3PZ         0.00000  -0.04113  -0.03547   0.00000   0.00000
  10        4XX         0.00000   0.00001   0.00012   0.00000   0.00000
  11        4YY         0.00000   0.01412  -0.00810   0.00000   0.00000
  12        4ZZ         0.00000  -0.01337   0.00228   0.00000   0.00000
  13        4XY        -0.00774   0.00000   0.00000  -0.01134   0.00114
  14        4XZ         0.00604   0.00000   0.00000  -0.01114   0.01090
  15        4YZ         0.00000   0.00194   0.01726   0.00000   0.00000
  16 2   C  1S          0.00000   0.02679  -0.00151   0.00000   0.00000
  17        2S          0.00000  -0.05911  -0.00596   0.00000   0.00000
  18        2PX         0.24399   0.00000   0.00000  -0.11795   0.30509
  19        2PY         0.00000   0.09600   0.22296   0.00000   0.00000
  20        2PZ         0.00000   0.17190   0.03623   0.00000   0.00000
  21        3S          0.00000  -0.07232   0.03254   0.00000   0.00000
  22        3PX         0.13272   0.00000   0.00000  -0.08149   0.20076
  23        3PY         0.00000   0.02637   0.08708   0.00000   0.00000
  24        3PZ         0.00000   0.09573   0.00437   0.00000   0.00000
  25        4XX         0.00000   0.00076   0.00144   0.00000   0.00000
  26        4YY         0.00000  -0.00286   0.00843   0.00000   0.00000
  27        4ZZ         0.00000   0.00744  -0.00122   0.00000   0.00000
  28        4XY        -0.01401   0.00000   0.00000   0.01338   0.00247
  29        4XZ        -0.00088   0.00000   0.00000  -0.01714  -0.01070
  30        4YZ         0.00000   0.00304   0.02148   0.00000   0.00000
  31 3   N  1S          0.00000  -0.03010   0.00000   0.00000   0.00000
  32        2S          0.00000   0.06906   0.00000   0.00000   0.00000
  33        2PX         0.31022   0.00000   0.00000  -0.34495   0.00000
  34        2PY         0.00000   0.00000  -0.22515   0.00000   0.00000
  35        2PZ         0.00000   0.19068   0.00000   0.00000   0.00000
  36        3S          0.00000   0.07711   0.00000   0.00000   0.00000
  37        3PX         0.17716   0.00000   0.00000  -0.23035   0.00000
  38        3PY         0.00000   0.00000  -0.10443   0.00000   0.00000
  39        3PZ         0.00000   0.10836   0.00000   0.00000   0.00000
  40        4XX         0.00000   0.00496   0.00000   0.00000   0.00000
  41        4YY         0.00000   0.01407   0.00000   0.00000   0.00000
  42        4ZZ         0.00000  -0.01849   0.00000   0.00000   0.00000
  43        4XY         0.00000   0.00000   0.00000   0.00000   0.01967
  44        4XZ        -0.02343   0.00000   0.00000   0.01769   0.00000
  45        4YZ         0.00000   0.00000   0.01547   0.00000   0.00000
  46 4   C  1S          0.00000   0.02679   0.00151   0.00000   0.00000
  47        2S          0.00000  -0.05911   0.00596   0.00000   0.00000
  48        2PX         0.24399   0.00000   0.00000  -0.11795  -0.30509
  49        2PY         0.00000  -0.09600   0.22296   0.00000   0.00000
  50        2PZ         0.00000   0.17190  -0.03623   0.00000   0.00000
  51        3S          0.00000  -0.07232  -0.03254   0.00000   0.00000
  52        3PX         0.13272   0.00000   0.00000  -0.08149  -0.20076
  53        3PY         0.00000  -0.02637   0.08708   0.00000   0.00000
  54        3PZ         0.00000   0.09573  -0.00437   0.00000   0.00000
  55        4XX         0.00000   0.00076  -0.00144   0.00000   0.00000
  56        4YY         0.00000  -0.00286  -0.00843   0.00000   0.00000
  57        4ZZ         0.00000   0.00744   0.00122   0.00000   0.00000
  58        4XY         0.01401   0.00000   0.00000  -0.01338   0.00247
  59        4XZ        -0.00088   0.00000   0.00000  -0.01714   0.01070
  60        4YZ         0.00000  -0.00304   0.02148   0.00000   0.00000
  61 5   C  1S          0.00000  -0.02082  -0.00194   0.00000   0.00000
  62        2S          0.00000   0.04241  -0.00123   0.00000   0.00000
  63        2PX         0.18832   0.00000   0.00000   0.21049  -0.29893
  64        2PY         0.00000   0.08865  -0.22972   0.00000   0.00000
  65        2PZ         0.00000  -0.16676   0.06487   0.00000   0.00000
  66        3S          0.00000   0.08827   0.04166   0.00000   0.00000
  67        3PX         0.10246   0.00000   0.00000   0.14189  -0.21162
  68        3PY         0.00000   0.02586  -0.08772   0.00000   0.00000
  69        3PZ         0.00000  -0.04113   0.03547   0.00000   0.00000
  70        4XX         0.00000   0.00001  -0.00012   0.00000   0.00000
  71        4YY         0.00000   0.01412   0.00810   0.00000   0.00000
  72        4ZZ         0.00000  -0.01337  -0.00228   0.00000   0.00000
  73        4XY         0.00774   0.00000   0.00000   0.01134   0.00114
  74        4XZ         0.00604   0.00000   0.00000  -0.01114  -0.01090
  75        4YZ         0.00000  -0.00194   0.01726   0.00000   0.00000
  76 6   C  1S          0.00000  -0.01109   0.00000   0.00000   0.00000
  77        2S          0.00000   0.03202   0.00000   0.00000   0.00000
  78        2PX         0.17870   0.00000   0.00000   0.36076   0.00000
  79        2PY         0.00000   0.00000   0.28402   0.00000   0.00000
  80        2PZ         0.00000   0.36153   0.00000   0.00000   0.00000
  81        3S          0.00000   0.01267   0.00000   0.00000   0.00000
  82        3PX         0.09899   0.00000   0.00000   0.23666   0.00000
  83        3PY         0.00000   0.00000   0.12388   0.00000   0.00000
  84        3PZ         0.00000   0.12950   0.00000   0.00000   0.00000
  85        4XX         0.00000   0.00014   0.00000   0.00000   0.00000
  86        4YY         0.00000   0.01179   0.00000   0.00000   0.00000
  87        4ZZ         0.00000  -0.02304   0.00000   0.00000   0.00000
  88        4XY         0.00000   0.00000   0.00000   0.00000   0.02019
  89        4XZ         0.00913   0.00000   0.00000   0.00683   0.00000
  90        4YZ         0.00000   0.00000   0.00773   0.00000   0.00000
  91 7   H  1S          0.00000   0.02843  -0.14129   0.00000   0.00000
  92        2S          0.00000   0.01812  -0.13295   0.00000   0.00000
  93 8   H  1S          0.00000   0.08013   0.16206   0.00000   0.00000
  94        2S          0.00000   0.06571   0.14883   0.00000   0.00000
  95 9   H  1S          0.00000   0.08013  -0.16206   0.00000   0.00000
  96        2S          0.00000   0.06571  -0.14883   0.00000   0.00000
  97 10  H  1S          0.00000   0.02843   0.14129   0.00000   0.00000
  98        2S          0.00000   0.01812   0.13295   0.00000   0.00000
  99 11  H  1S          0.00000  -0.24230   0.00000   0.00000   0.00000
 100        2S          0.00000  -0.21125   0.00000   0.00000   0.00000
                          21        22        23        24        25
                        (A1)--O   (B1)--V   (A2)--V   (A1)--V   (B1)--V
     Eigenvalues --    -0.20890  -0.05318  -0.04026   0.07029   0.10362
   1 1   C  1S         -0.02333   0.00000   0.00000   0.03896   0.00000
   2        2S          0.05206   0.00000   0.00000  -0.06803   0.00000
   3        2PX         0.00000  -0.17233   0.32401   0.00000   0.31087
   4        2PY        -0.00444   0.00000   0.00000  -0.13292   0.00000
   5        2PZ         0.17389   0.00000   0.00000   0.10036   0.00000
   6        3S          0.13340   0.00000   0.00000  -0.57224   0.00000
   7        3PX         0.00000  -0.22154   0.39917   0.00000   0.51071
   8        3PY         0.04825   0.00000   0.00000  -0.32460   0.00000
   9        3PZ         0.13027   0.00000   0.00000   0.17795   0.00000
  10        4XX         0.00107   0.00000   0.00000  -0.00343   0.00000
  11        4YY        -0.00461   0.00000   0.00000   0.01847   0.00000
  12        4ZZ         0.00151   0.00000   0.00000  -0.01304   0.00000
  13        4XY         0.00000  -0.01760   0.00158   0.00000   0.01789
  14        4XZ         0.00000  -0.02369  -0.01981   0.00000  -0.01004
  15        4YZ         0.00503   0.00000   0.00000  -0.01974   0.00000
  16 2   C  1S          0.02414   0.00000   0.00000   0.03439   0.00000
  17        2S         -0.05770   0.00000   0.00000  -0.07190   0.00000
  18        2PX         0.00000  -0.21259  -0.33902   0.00000  -0.30054
  19        2PY         0.07683   0.00000   0.00000  -0.08179   0.00000
  20        2PZ        -0.16173   0.00000   0.00000  -0.03428   0.00000
  21        3S         -0.08189   0.00000   0.00000  -0.37248   0.00000
  22        3PX         0.00000  -0.22043  -0.39391   0.00000  -0.46689
  23        3PY        -0.00124   0.00000   0.00000  -0.19097   0.00000
  24        3PZ         0.01644   0.00000   0.00000  -0.10316   0.00000
  25        4XX         0.00100   0.00000   0.00000  -0.00246   0.00000
  26        4YY        -0.02308   0.00000   0.00000   0.00286   0.00000
  27        4ZZ         0.02120   0.00000   0.00000   0.00428   0.00000
  28        4XY         0.00000  -0.02102  -0.00068   0.00000  -0.01601
  29        4XZ         0.00000   0.02174  -0.01918   0.00000  -0.00801
  30        4YZ        -0.01543   0.00000   0.00000   0.01828   0.00000
  31 3   N  1S         -0.07807   0.00000   0.00000   0.00551   0.00000
  32        2S          0.16879   0.00000   0.00000  -0.02836   0.00000
  33        2PX         0.00000   0.37918   0.00000   0.00000   0.32017
  34        2PY         0.00000   0.00000   0.00000   0.00000   0.00000
  35        2PZ         0.49744   0.00000   0.00000   0.07956   0.00000
  36        3S          0.30886   0.00000   0.00000  -0.02612   0.00000
  37        3PX         0.00000   0.39563   0.00000   0.00000   0.42166
  38        3PY         0.00000   0.00000   0.00000   0.00000   0.00000
  39        3PZ         0.35504   0.00000   0.00000   0.13557   0.00000
  40        4XX         0.01256   0.00000   0.00000  -0.00295   0.00000
  41        4YY         0.00173   0.00000   0.00000  -0.00796   0.00000
  42        4ZZ        -0.02459   0.00000   0.00000   0.00548   0.00000
  43        4XY         0.00000   0.00000  -0.03149   0.00000   0.00000
  44        4XZ         0.00000  -0.00579   0.00000   0.00000   0.00172
  45        4YZ         0.00000   0.00000   0.00000   0.00000   0.00000
  46 4   C  1S          0.02414   0.00000   0.00000   0.03439   0.00000
  47        2S         -0.05770   0.00000   0.00000  -0.07190   0.00000
  48        2PX         0.00000  -0.21259   0.33902   0.00000  -0.30054
  49        2PY        -0.07683   0.00000   0.00000   0.08179   0.00000
  50        2PZ        -0.16173   0.00000   0.00000  -0.03428   0.00000
  51        3S         -0.08189   0.00000   0.00000  -0.37248   0.00000
  52        3PX         0.00000  -0.22043   0.39391   0.00000  -0.46689
  53        3PY         0.00124   0.00000   0.00000   0.19097   0.00000
  54        3PZ         0.01644   0.00000   0.00000  -0.10316   0.00000
  55        4XX         0.00100   0.00000   0.00000  -0.00246   0.00000
  56        4YY        -0.02308   0.00000   0.00000   0.00286   0.00000
  57        4ZZ         0.02120   0.00000   0.00000   0.00428   0.00000
  58        4XY         0.00000   0.02102  -0.00068   0.00000   0.01601
  59        4XZ         0.00000   0.02174   0.01918   0.00000  -0.00801
  60        4YZ         0.01543   0.00000   0.00000  -0.01828   0.00000
  61 5   C  1S         -0.02333   0.00000   0.00000   0.03896   0.00000
  62        2S          0.05206   0.00000   0.00000  -0.06803   0.00000
  63        2PX         0.00000  -0.17233  -0.32401   0.00000   0.31087
  64        2PY         0.00444   0.00000   0.00000   0.13292   0.00000
  65        2PZ         0.17389   0.00000   0.00000   0.10036   0.00000
  66        3S          0.13340   0.00000   0.00000  -0.57224   0.00000
  67        3PX         0.00000  -0.22154  -0.39917   0.00000   0.51071
  68        3PY        -0.04825   0.00000   0.00000   0.32460   0.00000
  69        3PZ         0.13027   0.00000   0.00000   0.17795   0.00000
  70        4XX         0.00107   0.00000   0.00000  -0.00343   0.00000
  71        4YY        -0.00461   0.00000   0.00000   0.01847   0.00000
  72        4ZZ         0.00151   0.00000   0.00000  -0.01304   0.00000
  73        4XY         0.00000   0.01760   0.00158   0.00000  -0.01789
  74        4XZ         0.00000  -0.02369   0.01981   0.00000  -0.01004
  75        4YZ        -0.00503   0.00000   0.00000   0.01974   0.00000
  76 6   C  1S          0.00204   0.00000   0.00000   0.04879   0.00000
  77        2S         -0.00829   0.00000   0.00000  -0.08402   0.00000
  78        2PX         0.00000   0.38789   0.00000   0.00000  -0.30062
  79        2PY         0.00000   0.00000   0.00000   0.00000   0.00000
  80        2PZ        -0.04640   0.00000   0.00000   0.19337   0.00000
  81        3S          0.06603   0.00000   0.00000  -0.72687   0.00000
  82        3PX         0.00000   0.46904   0.00000   0.00000  -0.50780
  83        3PY         0.00000   0.00000   0.00000   0.00000   0.00000
  84        3PZ        -0.01278   0.00000   0.00000   0.44189   0.00000
  85        4XX        -0.00006   0.00000   0.00000  -0.00415   0.00000
  86        4YY        -0.00761   0.00000   0.00000  -0.02285   0.00000
  87        4ZZ         0.01041   0.00000   0.00000   0.02947   0.00000
  88        4XY         0.00000   0.00000   0.03263   0.00000   0.00000
  89        4XZ         0.00000  -0.01256   0.00000   0.00000   0.01881
  90        4YZ         0.00000   0.00000   0.00000   0.00000   0.00000
  91 7   H  1S         -0.05685   0.00000   0.00000   0.09012   0.00000
  92        2S         -0.09807   0.00000   0.00000   0.86423   0.00000
  93 8   H  1S         -0.09258   0.00000   0.00000   0.05596   0.00000
  94        2S         -0.11425   0.00000   0.00000   0.53314   0.00000
  95 9   H  1S         -0.09258   0.00000   0.00000   0.05596   0.00000
  96        2S         -0.11425   0.00000   0.00000   0.53314   0.00000
  97 10  H  1S         -0.05685   0.00000   0.00000   0.09012   0.00000
  98        2S         -0.09807   0.00000   0.00000   0.86423   0.00000
  99 11  H  1S          0.05487   0.00000   0.00000   0.11017   0.00000
 100        2S          0.06785   0.00000   0.00000   1.04521   0.00000
                          26        27        28        29        30
                        (B2)--V   (A1)--V   (A1)--V   (B2)--V   (A1)--V
     Eigenvalues --     0.11718   0.13429   0.15346   0.15476   0.21046
   1 1   C  1S          0.03821   0.00794  -0.07377  -0.07879   0.01180
   2        2S         -0.04782  -0.00165   0.16785   0.13076   0.02843
   3        2PX         0.00000   0.00000   0.00000   0.00000   0.00000
   4        2PY        -0.21542   0.04889   0.06230   0.07343   0.07386
   5        2PZ         0.08524   0.04460  -0.09837   0.00502   0.05183
   6        3S         -0.84215  -0.21353   0.54438   1.33905  -0.71462
   7        3PX         0.00000   0.00000   0.00000   0.00000   0.00000
   8        3PY        -0.50698   0.33047   0.78458   0.46866   0.58386
   9        3PZ         0.29397   0.27722  -0.63544   0.04740   0.23127
  10        4XX        -0.00122   0.00013   0.01159   0.00583  -0.00091
  11        4YY         0.00031   0.00147  -0.01179   0.00853   0.02905
  12        4ZZ        -0.00060   0.00094  -0.00308  -0.01671  -0.02070
  13        4XY         0.00000   0.00000   0.00000   0.00000   0.00000
  14        4XZ         0.00000   0.00000   0.00000   0.00000   0.00000
  15        4YZ        -0.01762   0.00549  -0.01353  -0.00732   0.03027
  16 2   C  1S          0.01780   0.07280   0.03647   0.07875   0.04599
  17        2S         -0.01931  -0.11986  -0.08610  -0.14216  -0.04533
  18        2PX         0.00000   0.00000   0.00000   0.00000   0.00000
  19        2PY        -0.19059  -0.09218  -0.08322  -0.13742   0.16720
  20        2PZ        -0.09892  -0.16663  -0.00960  -0.00199   0.04110
  21        3S         -0.54210  -1.10986   0.08954  -1.18270  -0.86292
  22        3PX         0.00000   0.00000   0.00000   0.00000   0.00000
  23        3PY        -0.36574  -0.39910  -0.63660  -0.66070   0.88570
  24        3PZ        -0.30622  -0.41860  -0.20514   0.04099  -0.30325
  25        4XX         0.00005  -0.00761  -0.00464  -0.00907  -0.01516
  26        4YY        -0.00221   0.02117   0.00470  -0.00474   0.02535
  27        4ZZ        -0.00329  -0.00884   0.01067   0.01479  -0.00813
  28        4XY         0.00000   0.00000   0.00000   0.00000   0.00000
  29        4XZ         0.00000   0.00000   0.00000   0.00000   0.00000
  30        4YZ         0.01995  -0.00781   0.00182  -0.00557  -0.02905
  31 3   N  1S          0.00000  -0.04767   0.01133   0.00000  -0.10926
  32        2S          0.00000   0.10260   0.04499   0.00000   0.17958
  33        2PX         0.00000   0.00000   0.00000   0.00000   0.00000
  34        2PY        -0.05741   0.00000   0.00000   0.10567   0.00000
  35        2PZ         0.00000  -0.07613  -0.04305   0.00000  -0.20156
  36        3S          0.00000   0.48609  -0.69224   0.00000   2.08081
  37        3PX         0.00000   0.00000   0.00000   0.00000   0.00000
  38        3PY         0.05721   0.00000   0.00000   0.09343   0.00000
  39        3PZ         0.00000  -0.00441   0.27014   0.00000  -0.77073
  40        4XX         0.00000  -0.00183   0.01683   0.00000  -0.02472
  41        4YY         0.00000  -0.03011   0.00058   0.00000  -0.01552
  42        4ZZ         0.00000   0.01070   0.01233   0.00000  -0.01830
  43        4XY         0.00000   0.00000   0.00000   0.00000   0.00000
  44        4XZ         0.00000   0.00000   0.00000   0.00000   0.00000
  45        4YZ        -0.01452   0.00000   0.00000   0.01179   0.00000
  46 4   C  1S         -0.01780   0.07280   0.03647  -0.07875   0.04599
  47        2S          0.01931  -0.11986  -0.08610   0.14216  -0.04533
  48        2PX         0.00000   0.00000   0.00000   0.00000   0.00000
  49        2PY        -0.19059   0.09218   0.08322  -0.13742  -0.16720
  50        2PZ         0.09892  -0.16663  -0.00960   0.00199   0.04110
  51        3S          0.54210  -1.10986   0.08954   1.18270  -0.86292
  52        3PX         0.00000   0.00000   0.00000   0.00000   0.00000
  53        3PY        -0.36574   0.39910   0.63660  -0.66070  -0.88570
  54        3PZ         0.30622  -0.41860  -0.20514  -0.04099  -0.30325
  55        4XX        -0.00005  -0.00761  -0.00464   0.00907  -0.01516
  56        4YY         0.00221   0.02117   0.00470   0.00474   0.02535
  57        4ZZ         0.00329  -0.00884   0.01067  -0.01479  -0.00813
  58        4XY         0.00000   0.00000   0.00000   0.00000   0.00000
  59        4XZ         0.00000   0.00000   0.00000   0.00000   0.00000
  60        4YZ         0.01995   0.00781  -0.00182  -0.00557   0.02905
  61 5   C  1S         -0.03821   0.00794  -0.07377   0.07879   0.01180
  62        2S          0.04782  -0.00165   0.16785  -0.13076   0.02843
  63        2PX         0.00000   0.00000   0.00000   0.00000   0.00000
  64        2PY        -0.21542  -0.04889  -0.06230   0.07343  -0.07386
  65        2PZ        -0.08524   0.04460  -0.09837  -0.00502   0.05183
  66        3S          0.84215  -0.21353   0.54438  -1.33905  -0.71462
  67        3PX         0.00000   0.00000   0.00000   0.00000   0.00000
  68        3PY        -0.50698  -0.33047  -0.78458   0.46866  -0.58386
  69        3PZ        -0.29397   0.27722  -0.63544  -0.04740   0.23127
  70        4XX         0.00122   0.00013   0.01159  -0.00583  -0.00091
  71        4YY        -0.00031   0.00147  -0.01179  -0.00853   0.02905
  72        4ZZ         0.00060   0.00094  -0.00308   0.01671  -0.02070
  73        4XY         0.00000   0.00000   0.00000   0.00000   0.00000
  74        4XZ         0.00000   0.00000   0.00000   0.00000   0.00000
  75        4YZ        -0.01762  -0.00549   0.01353  -0.00732  -0.03027
  76 6   C  1S          0.00000  -0.06397   0.09563   0.00000  -0.04935
  77        2S          0.00000   0.08193  -0.20875   0.00000   0.08766
  78        2PX         0.00000   0.00000   0.00000   0.00000   0.00000
  79        2PY        -0.03036   0.00000   0.00000  -0.11319   0.00000
  80        2PZ         0.00000  -0.18079   0.07198   0.00000   0.30695
  81        3S          0.00000   1.48747  -0.75929   0.00000   1.03053
  82        3PX         0.00000   0.00000   0.00000   0.00000   0.00000
  83        3PY         0.12934   0.00000   0.00000  -0.43262   0.00000
  84        3PZ         0.00000  -0.44528   0.96133   0.00000   1.26985
  85        4XX         0.00000   0.00140  -0.01215   0.00000   0.00254
  86        4YY         0.00000  -0.00137   0.02211   0.00000  -0.01155
  87        4ZZ         0.00000   0.00219  -0.00372   0.00000   0.00112
  88        4XY         0.00000   0.00000   0.00000   0.00000   0.00000
  89        4XZ         0.00000   0.00000   0.00000   0.00000   0.00000
  90        4YZ         0.01434   0.00000   0.00000   0.02283   0.00000
  91 7   H  1S          0.07163  -0.01442  -0.06965  -0.02659  -0.03397
  92        2S          1.14571  -0.09870  -1.30209  -0.93812  -0.23105
  93 8   H  1S          0.06253   0.06744   0.05703   0.05438   0.00580
  94        2S          0.89521   1.18799   0.71198   1.13596  -0.29370
  95 9   H  1S         -0.06253   0.06744   0.05703  -0.05438   0.00580
  96        2S         -0.89521   1.18799   0.71198  -1.13596  -0.29370
  97 10  H  1S         -0.07163  -0.01442  -0.06965   0.02659  -0.03397
  98        2S         -1.14571  -0.09870  -1.30209   0.93812  -0.23105
  99 11  H  1S          0.00000  -0.03971   0.06541   0.00000   0.03100
 100        2S          0.00000  -1.14635   1.33423   0.00000   1.07041
                          31        32        33        34        35
                        (B2)--V   (B2)--V   (A1)--V   (A1)--V   (B2)--V
     Eigenvalues --     0.26421   0.28291   0.28719   0.41641   0.44326
   1 1   C  1S         -0.07398   0.01335  -0.01446   0.10456   0.00205
   2        2S          0.08013  -0.04615  -0.00831  -0.21646  -0.01658
   3        2PX         0.00000   0.00000   0.00000   0.00000   0.00000
   4        2PY        -0.22428   0.07785   0.16063   0.14630   0.17292
   5        2PZ         0.00956  -0.18335   0.18439  -0.23360   0.36814
   6        3S          2.22136   0.11385   0.54248  -3.22054   0.05899
   7        3PX         0.00000   0.00000   0.00000   0.00000   0.00000
   8        3PY        -1.09072   0.11224   1.05543   2.41774   0.83747
   9        3PZ         0.24821  -1.40947   1.28001  -1.10143   1.47452
  10        4XX         0.00673  -0.00172   0.00500  -0.01042   0.00040
  11        4YY         0.01061  -0.01663   0.03474  -0.00306  -0.02499
  12        4ZZ        -0.02673   0.01860  -0.04927  -0.01470   0.01775
  13        4XY         0.00000   0.00000   0.00000   0.00000   0.00000
  14        4XZ         0.00000   0.00000   0.00000   0.00000   0.00000
  15        4YZ        -0.02056  -0.04338  -0.00578  -0.00433  -0.00543
  16 2   C  1S          0.01528  -0.08365   0.01879  -0.06204   0.01303
  17        2S         -0.02673   0.10980  -0.04093  -0.21443  -0.08244
  18        2PX         0.00000   0.00000   0.00000   0.00000   0.00000
  19        2PY         0.09210  -0.19292  -0.12520   0.05394   0.10082
  20        2PZ         0.19148  -0.07582   0.29204  -0.15320  -0.10504
  21        3S         -0.10789   2.05178  -0.60920   2.83558  -0.01973
  22        3PX         0.00000   0.00000   0.00000   0.00000   0.00000
  23        3PY         0.31938  -0.87154  -0.89657  -1.39285  -1.33343
[...]
  92        2S         -0.00002   0.00000   0.00000   0.00000   0.00000
  93 8   H  1S          0.00000   0.00000   0.00000   0.00000   0.00000
  94        2S          0.00000   0.00000   0.00000   0.00000   0.00000
  95 9   H  1S          0.00000   0.00001   0.00000   0.00000   0.00007
  96        2S          0.00009  -0.00012   0.00000   0.00000   0.00025
  97 10  H  1S          0.00478   0.00005   0.00000   0.00000   0.00249
  98        2S          0.00355  -0.00059   0.00000   0.00000   0.00049
  99 11  H  1S         -0.00004   0.00008   0.00000   0.00000   0.00005
 100        2S         -0.00060   0.00069   0.00000   0.00000   0.00010
                          76        77        78        79        80
  76 6   C  1S          2.05595
  77        2S         -0.01552   0.30835
  78        2PX         0.00000   0.00000   0.32416
  79        2PY         0.00000   0.00000   0.00000   0.40792
  80        2PZ         0.00000   0.00000   0.00000   0.00000   0.41132
  81        3S         -0.03245   0.20525   0.00000   0.00000   0.00000
  82        3PX         0.00000   0.00000   0.11745   0.00000   0.00000
  83        3PY         0.00000   0.00000   0.00000   0.08085   0.00000
  84        3PZ         0.00000   0.00000   0.00000   0.00000   0.08799
  85        4XX        -0.00068  -0.00445   0.00000   0.00000   0.00000
  86        4YY        -0.00100   0.00295   0.00000   0.00000   0.00000
  87        4ZZ        -0.00134   0.00749   0.00000   0.00000   0.00000
  88        4XY         0.00000   0.00000   0.00000   0.00000   0.00000
  89        4XZ         0.00000   0.00000   0.00000   0.00000   0.00000
  90        4YZ         0.00000   0.00000   0.00000   0.00000   0.00000
  91 7   H  1S          0.00000  -0.00017   0.00000  -0.00071  -0.00001
  92        2S          0.00016  -0.00219   0.00000  -0.00891   0.00002
  93 8   H  1S          0.00000   0.00000   0.00000   0.00000   0.00000
  94        2S          0.00000   0.00011   0.00000   0.00023   0.00022
  95 9   H  1S          0.00000   0.00000   0.00000   0.00000   0.00000
  96        2S          0.00000   0.00011   0.00000   0.00023   0.00022
  97 10  H  1S          0.00000  -0.00017   0.00000  -0.00071  -0.00001
  98        2S          0.00016  -0.00219   0.00000  -0.00891   0.00002
  99 11  H  1S         -0.00196   0.03019   0.00000   0.00000   0.09771
 100        2S         -0.00087   0.00954   0.00000   0.00000   0.05315
                          81        82        83        84        85
  81        3S          0.24836
  82        3PX         0.00000   0.13161
  83        3PY         0.00000   0.00000   0.05477
  84        3PZ         0.00000   0.00000   0.00000   0.06331
  85        4XX        -0.00261   0.00000   0.00000   0.00000   0.00021
  86        4YY         0.00054   0.00000   0.00000   0.00000  -0.00002
  87        4ZZ         0.00791   0.00000   0.00000   0.00000  -0.00006
  88        4XY         0.00000   0.00000   0.00000   0.00000   0.00000
  89        4XZ         0.00000   0.00000   0.00000   0.00000   0.00000
  90        4YZ         0.00000   0.00000   0.00000   0.00000   0.00000
  91 7   H  1S         -0.00365   0.00000  -0.00366  -0.00006   0.00000
  92        2S         -0.01186   0.00000  -0.01167  -0.00006   0.00002
  93 8   H  1S          0.00006   0.00000   0.00017   0.00006   0.00000
  94        2S          0.00050   0.00000   0.00163   0.00090   0.00000
  95 9   H  1S          0.00006   0.00000   0.00017   0.00006   0.00000
  96        2S          0.00050   0.00000   0.00163   0.00090   0.00000
  97 10  H  1S         -0.00365   0.00000  -0.00366  -0.00006   0.00000
  98        2S         -0.01186   0.00000  -0.01167  -0.00006   0.00002
  99 11  H  1S          0.04615   0.00000   0.00000   0.05577  -0.00018
 100        2S          0.03003   0.00000   0.00000   0.04348  -0.00010
                          86        87        88        89        90
  86        4YY         0.00099
  87        4ZZ        -0.00024   0.00202
  88        4XY         0.00000   0.00000   0.00082
  89        4XZ         0.00000   0.00000   0.00000   0.00026
  90        4YZ         0.00000   0.00000   0.00000   0.00000   0.00078
  91 7   H  1S          0.00011  -0.00001   0.00000   0.00000  -0.00001
  92        2S          0.00064  -0.00037   0.00000   0.00000  -0.00005
  93 8   H  1S          0.00000   0.00000   0.00000   0.00000   0.00000
  94        2S          0.00001  -0.00002   0.00000   0.00000   0.00000
  95 9   H  1S          0.00000   0.00000   0.00000   0.00000   0.00000
  96        2S          0.00001  -0.00002   0.00000   0.00000   0.00000
  97 10  H  1S          0.00011  -0.00001   0.00000   0.00000  -0.00001
  98        2S          0.00064  -0.00037   0.00000   0.00000  -0.00005
  99 11  H  1S         -0.00057   0.00803   0.00000   0.00000   0.00000
 100        2S         -0.00206   0.00553   0.00000   0.00000   0.00000
                          91        92        93        94        95
  91 7   H  1S          0.21721
  92        2S          0.09646   0.11863
  93 8   H  1S         -0.00001  -0.00034   0.22076
  94        2S         -0.00049  -0.00048   0.09987   0.12318
  95 9   H  1S          0.00000   0.00000   0.00000   0.00000   0.22076
  96        2S          0.00000   0.00002   0.00000  -0.00010   0.09987
  97 10  H  1S          0.00000   0.00000   0.00000   0.00000  -0.00001
  98        2S          0.00000  -0.00008   0.00000   0.00002  -0.00034
  99 11  H  1S         -0.00001  -0.00078   0.00000   0.00000   0.00000
 100        2S         -0.00074  -0.00374   0.00000  -0.00014   0.00000
                          96        97        98        99       100
  96        2S          0.12318
  97 10  H  1S         -0.00049   0.21721
  98        2S         -0.00048   0.09646   0.11863
  99 11  H  1S          0.00000  -0.00001  -0.00078   0.21790
 100        2S         -0.00014  -0.00074  -0.00374   0.09601   0.11434
     Gross orbital populations:
                           1
   1 1   C  1S          1.99392
   2        2S          0.68325
   3        2PX         0.57299
   4        2PY         0.73822
   5        2PZ         0.74268
   6        3S          0.54358
   7        3PX         0.42337
   8        3PY         0.26312
   9        3PZ         0.19585
  10        4XX        -0.01042
  11        4YY         0.02379
  12        4ZZ         0.01604
  13        4XY         0.00306
  14        4XZ         0.00460
  15        4YZ         0.01134
  16 2   C  1S          1.99371
  17        2S          0.69472
  18        2PX         0.55982
  19        2PY         0.72664
  20        2PZ         0.74112
  21        3S          0.44494
  22        3PX         0.37872
  23        3PY         0.17786
  24        3PZ         0.19258
  25        4XX        -0.01129
  26        4YY         0.02701
  27        4ZZ         0.01936
  28        4XY         0.00537
  29        4XZ         0.00641
  30        4YZ         0.02043
  31 3   N  1S          1.99352
  32        2S          0.81118
  33        2PX         0.66004
  34        2PY         0.76357
  35        2PZ         0.95415
  36        3S          0.96454
  37        3PX         0.45763
  38        3PY         0.23011
  39        3PZ         0.56192
  40        4XX        -0.00455
  41        4YY         0.01313
  42        4ZZ        -0.01059
  43        4XY         0.00691
  44        4XZ         0.00669
  45        4YZ         0.01472
  46 4   C  1S          1.99371
  47        2S          0.69472
  48        2PX         0.55982
  49        2PY         0.72664
  50        2PZ         0.74112
  51        3S          0.44494
  52        3PX         0.37872
  53        3PY         0.17786
  54        3PZ         0.19258
  55        4XX        -0.01129
  56        4YY         0.02701
  57        4ZZ         0.01936
  58        4XY         0.00537
  59        4XZ         0.00641
  60        4YZ         0.02043
  61 5   C  1S          1.99392
  62        2S          0.68325
  63        2PX         0.57299
  64        2PY         0.73822
  65        2PZ         0.74268
  66        3S          0.54358
  67        3PX         0.42337
  68        3PY         0.26312
  69        3PZ         0.19585
  70        4XX        -0.01042
  71        4YY         0.02379
  72        4ZZ         0.01604
  73        4XY         0.00306
  74        4XZ         0.00460
  75        4YZ         0.01134
  76 6   C  1S          1.99390
  77        2S          0.68845
  78        2PX         0.55080
  79        2PY         0.74694
  80        2PZ         0.74140
  81        3S          0.51966
  82        3PX         0.40052
  83        3PY         0.17881
  84        3PZ         0.26839
  85        4XX        -0.01029
  86        4YY         0.01421
  87        4ZZ         0.02797
  88        4XY         0.00661
  89        4XZ         0.00210
  90        4YZ         0.00875
  91 7   H  1S          0.53005
  92        2S          0.28490
  93 8   H  1S          0.53489
  94        2S          0.28148
  95 9   H  1S          0.53489
  96        2S          0.28148
  97 10  H  1S          0.53005
  98        2S          0.28490
  99 11  H  1S          0.53107
 100        2S          0.27949
          Condensed to atoms (all electrons):
              1          2          3          4          5          6
     1  C    5.047731   0.481038  -0.029104  -0.038985  -0.035339   0.527164
     2  C    0.481038   4.837912   0.451517  -0.076944  -0.038985  -0.042536
     3  N   -0.029104   0.451517   6.722754   0.451517  -0.029104  -0.042628
     4  C   -0.038985  -0.076944   0.451517   4.837912   0.481038  -0.042536
     5  C   -0.035339  -0.038985  -0.029104   0.481038   5.047731   0.527164
     6  C    0.527164  -0.042536  -0.042628  -0.042536   0.527164   4.914898
     7  H    0.357909  -0.032203   0.004321   0.000293   0.004969  -0.042433
     8  H   -0.067393   0.386874  -0.055217   0.006190  -0.000073   0.003860
     9  H   -0.000073   0.006190  -0.055217   0.386874  -0.067393   0.003860
    10  H    0.004969   0.000293   0.004321  -0.032203   0.357909  -0.042433
    11  H   -0.042524   0.004263  -0.000192   0.004263  -0.042524   0.373850
              7          8          9         10         11
     1  C    0.357909  -0.067393  -0.000073   0.004969  -0.042524
     2  C   -0.032203   0.386874   0.006190   0.000293   0.004263
     3  N    0.004321  -0.055217  -0.055217   0.004321  -0.000192
     4  C    0.000293   0.006190   0.386874  -0.032203   0.004263
     5  C    0.004969  -0.000073  -0.067393   0.357909  -0.042524
     6  C   -0.042433   0.003860   0.003860  -0.042433   0.373850
     7  H    0.528758  -0.001329   0.000025  -0.000085  -0.005275
     8  H   -0.001329   0.543685  -0.000110   0.000025  -0.000149
     9  H    0.000025  -0.000110   0.543685  -0.001329  -0.000149
    10  H   -0.000085   0.000025  -0.001329   0.528758  -0.005275
    11  H   -0.005275  -0.000149  -0.000149  -0.005275   0.524265
 Mulliken atomic charges:
              1
     1  C   -0.205393
     2  C    0.022582
     3  N   -0.422967
     4  C    0.022582
     5  C   -0.205393
     6  C   -0.138230
     7  H    0.185051
     8  H    0.183636
     9  H    0.183636
    10  H    0.185051
    11  H    0.189444
 Sum of Mulliken atomic charges =   0.00000
 Mulliken charges with hydrogens summed into heavy atoms:
              1
     1  C   -0.020342
     2  C    0.206218
     3  N   -0.422967
     4  C    0.206218
     5  C   -0.020342
     6  C    0.051215
 Sum of Mulliken charges with hydrogens summed into heavy atoms =   0.00000
 Electronic spatial extent (au):  <R**2>=            434.1346
 Charge=              0.0000 electrons
 Dipole moment (field-independent basis, Debye):
    X=              0.0000    Y=              0.0000    Z=             -2.1551  Tot=              2.1551
 Quadrupole moment (field-independent basis, Debye-Ang):
   XX=            -36.8413   YY=            -28.3313   ZZ=            -34.8949
   XY=              0.0000   XZ=              0.0000   YZ=              0.0000
 Traceless Quadrupole moment (field-independent basis, Debye-Ang):
   XX=             -3.4855   YY=              5.0246   ZZ=             -1.5391
   XY=              0.0000   XZ=              0.0000   YZ=              0.0000
 Octapole moment (field-independent basis, Debye-Ang**2):
  XXX=              0.0000  YYY=              0.0000  ZZZ=            -14.2855  XYY=              0.0000
  XXY=              0.0000  XXZ=              1.4059  XZZ=              0.0000  YZZ=              0.0000
  YYZ=              1.6436  XYZ=              0.0000
 Hexadecapole moment (field-independent basis, Debye-Ang**3):
 XXXX=            -36.3672 YYYY=           -241.3114 ZZZZ=           -272.0984 XXXY=              0.0000
 XXXZ=              0.0000 YYYX=              0.0000 YYYZ=              0.0000 ZZZX=              0.0000
 ZZZY=              0.0000 XXYY=            -55.7600 XXZZ=            -54.1855 YYZZ=            -77.5174
 XXYZ=              0.0000 YYXZ=              0.0000 ZZXY=              0.0000
 N-N= 2.054794531692D+02 E-N=-9.867013282022D+02  KE= 2.459446869964D+02
 Symmetry A1   KE= 1.605234751222D+02
 Symmetry A2   KE= 2.307948766240D+00
 Symmetry B1   KE= 4.742665757527D+00
 Symmetry B2   KE= 7.837059735040D+01
 Orbital energies and kinetic energies (alpha):
                                 1                 2
   1         (A1)--O         -14.000133         21.991845
   2         (B2)--O          -9.931395         15.921460
   3         (A1)--O          -9.931390         15.919764
   4         (A1)--O          -9.922326         15.921094
   5         (B2)--O          -9.912716         15.920349
   6         (A1)--O          -9.912714         15.921952
   7         (A1)--O          -0.868727          1.789853
   8         (A1)--O          -0.738868          1.666879
   9         (B2)--O          -0.696925          1.617254
  10         (B2)--O          -0.573222          1.562088
  11         (A1)--O          -0.570449          1.539050
  12         (A1)--O          -0.476198          0.994566
  13         (B2)--O          -0.427699          1.528355
  14         (A1)--O          -0.421633          1.307177
  15         (B2)--O          -0.378651          1.223625
  16         (B1)--O          -0.355771          1.088246
  17         (A1)--O          -0.354885          1.354630
  18         (B2)--O          -0.316709          1.412167
  19         (B1)--O          -0.259566          1.283087
  20         (A2)--O          -0.236263          1.153974
  21         (A1)--O          -0.208903          1.854928
  22         (B1)--V          -0.053177          1.585992
  23         (A2)--V          -0.040260          1.424304
  24         (A1)--V           0.070286          0.964380
  25         (B1)--V           0.103622          1.837335
  26         (B2)--V           0.117182          1.005792
  27         (A1)--V           0.134290          1.203621
  28         (A1)--V           0.153456          1.250105
  29         (B2)--V           0.154756          1.312407
  30         (A1)--V           0.210462          1.705370
  31         (B2)--V           0.264207          1.538212
  32         (B2)--V           0.282907          1.939143
  33         (A1)--V           0.287189          1.720212
  34         (A1)--V           0.416408          2.164304
  35         (B2)--V           0.443258          1.432699
  36         (B2)--V           0.503806          2.133539
  37         (B1)--V           0.505990          1.994261
  38         (A1)--V           0.553533          1.977244
  39         (A1)--V           0.563120          2.029396
  40         (A1)--V           0.565952          2.094467
  41         (B2)--V           0.574970          2.122623
  42         (A2)--V           0.575661          2.004798
  43         (B1)--V           0.585846          2.047291
  44         (A1)--V           0.610030          2.794505
  45         (B2)--V           0.635740          2.412929
  46         (A2)--V           0.641714          2.131910
  47         (B1)--V           0.671118          2.215946
  48         (B2)--V           0.782594          2.689236
  49         (A1)--V           0.787695          2.833033
  50         (A1)--V           0.809152          2.586743
  51         (B2)--V           0.813557          2.544596
  52         (B1)--V           0.835532          2.670920
  53         (A1)--V           0.846547          2.103178
  54         (B2)--V           0.890257          2.557399
  55         (A1)--V           0.890541          2.603383
  56         (A1)--V           0.932312          2.436994
  57         (B2)--V           1.007376          2.711160
  58         (B2)--V           1.035963          2.114960
  59         (A1)--V           1.071530          2.316842
  60         (A1)--V           1.123441          2.234721
  61         (A2)--V           1.163621          2.406293
  62         (B2)--V           1.170167          2.308243
  63         (B1)--V           1.292698          2.527082
  64         (A1)--V           1.322755          2.416809
  65         (A2)--V           1.384194          2.670889
  66         (B1)--V           1.390585          2.664568
  67         (B2)--V           1.417098          2.538999
  68         (B1)--V           1.421603          2.685877
  69         (A2)--V           1.435829          2.732225
  70         (A1)--V           1.626495          2.813100
  71         (A1)--V           1.703807          3.099317
  72         (A1)--V           1.731437          3.052195
  73         (B2)--V           1.741719          3.275415
  74         (A1)--V           1.834959          3.378477
  75         (B2)--V           1.876054          3.531612
  76         (A1)--V           1.965788          3.673861
  77         (A2)--V           2.028682          3.319358
  78         (B2)--V           2.046524          3.649266
  79         (B1)--V           2.081476          3.377844
  80         (B2)--V           2.085211          3.709477
  81         (A1)--V           2.102246          3.724627
  82         (B1)--V           2.191117          3.549750
  83         (A2)--V           2.213649          3.578679
  84         (B1)--V           2.282280          3.596132
  85         (A1)--V           2.428350          4.040425
  86         (B2)--V           2.452347          4.019636
  87         (A1)--V           2.550402          4.438514
  88         (A1)--V           2.563523          4.311075
  89         (A2)--V           2.579468          3.972745
  90         (B2)--V           2.609448          4.540277
  91         (A1)--V           2.678326          4.548642
  92         (B2)--V           2.692374          4.642167
  93         (B2)--V           2.953482          5.010832
  94         (A1)--V           3.256638          5.257555
  95         (A1)--V           3.968571         10.289454
  96         (B2)--V           4.039159         10.188454
  97         (A1)--V           4.055941         10.361355
  98         (A1)--V           4.167070         10.060710
  99         (B2)--V           4.255162         10.145566
 100         (A1)--V           4.511048         10.225762
 Total kinetic energy from orbitals= 2.459446869964D+02
 1\1\GINC-LINUX-QEVW\SP\RTD-OPBE-FC\6-31G(d)\C5H5N1\ARMANDO\05-May-2011
 \0\\#opbe 6-31G* td=(nstates=10) gfinput pop=full\\opbe 6-31G* vacuo g
 eom\\0,1\C,0,0.,1.200185,-0.674878\C,0,0.,1.140066,0.722676\N,0,0.,0.,
 1.427266\C,0,0.,-1.140066,0.722676\C,0,0.,-1.200185,-0.674878\C,0,0.,0
 .,-1.389268\H,0,0.,2.163316,-1.186997\H,0,0.,2.061817,1.31294\H,0,0.,-
 2.061817,1.31294\H,0,0.,-2.163316,-1.186997\H,0,0.,0.,-2.480723\\Versi
 on=EM64L-G09RevA.01\State=1-A1\HF=-248.1801158\RMSD=1.484e-09\PG=C02V 
 [C2(H1C1N1),SGV(C4H4)]\\@


 E PUR SI MUOVE    -- GALILEO GALILEI
 Job cpu time:  0 days  0 hours  3 minutes 53.7 seconds.
 File lengths (MBytes):  RWF=     29 Int=      0 D2E=      0 Chk=      5 Scr=      1
 Normal termination of Gaussian 09 at Thu May  5 12:38:15 2011.
