
                                 *****************
                                 * O   R   C   A *
                                 *****************

                                            #,                                       
                                            ###                                      
                                            ####                                     
                                            #####                                    
                                            ######                                   
                                           ########,                                 
                                     ,,################,,,,,                         
                               ,,#################################,,                 
                          ,,##########################################,,             
                       ,#########################################, ''#####,          
                    ,#############################################,,   '####,        
                  ,##################################################,,,,####,       
                ,###########''''           ''''###############################       
              ,#####''   ,,,,##########,,,,          '''####'''          '####       
            ,##' ,,,,###########################,,,                        '##       
           ' ,,###''''                  '''############,,,                           
         ,,##''                                '''############,,,,        ,,,,,,###''
      ,#''                                            '''#######################'''  
     '                                                          ''''####''''         
             ,#######,   #######,   ,#######,      ##                                
            ,#'     '#,  ##    ##  ,#'     '#,    #''#        ######   ,####,        
            ##       ##  ##   ,#'  ##            #'  '#       #        #'  '#        
            ##       ##  #######   ##           ,######,      #####,   #    #        
            '#,     ,#'  ##    ##  '#,     ,#' ,#      #,         ##   #,  ,#        
             '#######'   ##     ##  '#######'  #'      '#     #####' # '####'        



                  #######################################################
                  #                        -***-                        #
                  #          Department of theory and spectroscopy      #
                  #    Directorship and core code : Frank Neese         #
                  #        Max Planck Institute fuer Kohlenforschung    #
                  #                Kaiser Wilhelm Platz 1               #
                  #                 D-45470 Muelheim/Ruhr               #
                  #                      Germany                        #
                  #                                                     #
                  #                  All rights reserved                #
                  #                        -***-                        #
                  #######################################################


                         Program Version 5.0.3 -  RELEASE  -


 With contributions from (in alphabetic order):
   Daniel Aravena         : Magnetic Suceptibility
   Michael Atanasov       : Ab Initio Ligand Field Theory (pilot matlab implementation)
   Alexander A. Auer      : GIAO ZORA, VPT2 properties, NMR spectrum
   Ute Becker             : Parallelization
   Giovanni Bistoni       : ED, misc. LED, open-shell LED, HFLD
   Martin Brehm           : Molecular dynamics
   Dmytro Bykov           : SCF Hessian
   Vijay G. Chilkuri      : MRCI spin determinant printing, contributions to CSF-ICE
   Dipayan Datta          : RHF DLPNO-CCSD density
   Achintya Kumar Dutta   : EOM-CC, STEOM-CC
   Dmitry Ganyushin       : Spin-Orbit,Spin-Spin,Magnetic field MRCI
   Miquel Garcia          : C-PCM and meta-GGA Hessian, CC/C-PCM, Gaussian charge scheme
   Yang Guo               : DLPNO-NEVPT2, F12-NEVPT2, CIM, IAO-localization
   Andreas Hansen         : Spin unrestricted coupled pair/coupled cluster methods
   Benjamin Helmich-Paris : MC-RPA, TRAH-SCF, COSX integrals
   Lee Huntington         : MR-EOM, pCC
   Robert Izsak           : Overlap fitted RIJCOSX, COSX-SCS-MP3, EOM
   Marcus Kettner         : VPT2
   Christian Kollmar      : KDIIS, OOCD, Brueckner-CCSD(T), CCSD density, CASPT2, CASPT2-K
   Simone Kossmann        : Meta GGA functionals, TD-DFT gradient, OOMP2, MP2 Hessian
   Martin Krupicka        : Initial AUTO-CI
   Lucas Lang             : DCDCAS
   Marvin Lechner         : AUTO-CI (C++ implementation), FIC-MRCC
   Dagmar Lenk            : GEPOL surface, SMD
   Dimitrios Liakos       : Extrapolation schemes; Compound Job, initial MDCI parallelization
   Dimitrios Manganas     : Further ROCIS development; embedding schemes
   Dimitrios Pantazis     : SARC Basis sets
   Anastasios Papadopoulos: AUTO-CI, single reference methods and gradients
   Taras Petrenko         : DFT Hessian,TD-DFT gradient, ASA, ECA, R-Raman, ABS, FL, XAS/XES, NRVS
   Peter Pinski           : DLPNO-MP2, DLPNO-MP2 Gradient
   Christoph Reimann      : Effective Core Potentials
   Marius Retegan         : Local ZFS, SOC
   Christoph Riplinger    : Optimizer, TS searches, QM/MM, DLPNO-CCSD(T), (RO)-DLPNO pert. Triples
   Tobias Risthaus        : Range-separated hybrids, TD-DFT gradient, RPA, STAB
   Michael Roemelt        : Original ROCIS implementation
   Masaaki Saitow         : Open-shell DLPNO-CCSD energy and density
   Barbara Sandhoefer     : DKH picture change effects
   Avijit Sen             : IP-ROCIS
   Kantharuban Sivalingam : CASSCF convergence, NEVPT2, FIC-MRCI
   Bernardo de Souza      : ESD, SOC TD-DFT
   Georgi Stoychev        : AutoAux, RI-MP2 NMR, DLPNO-MP2 response
   Willem Van den Heuvel  : Paramagnetic NMR
   Boris Wezisla          : Elementary symmetry handling
   Frank Wennmohs         : Technical directorship


 We gratefully acknowledge several colleagues who have allowed us to
 interface, adapt or use parts of their codes:
   Stefan Grimme, W. Hujo, H. Kruse, P. Pracht,  : VdW corrections, initial TS optimization,
                  C. Bannwarth, S. Ehlert          DFT functionals, gCP, sTDA/sTD-DF
   Ed Valeev, F. Pavosevic, A. Kumar             : LibInt (2-el integral package), F12 methods
   Garnet Chan, S. Sharma, J. Yang, R. Olivares  : DMRG
   Ulf Ekstrom                                   : XCFun DFT Library
   Mihaly Kallay                                 : mrcc  (arbitrary order and MRCC methods)
   Jiri Pittner, Ondrej Demel                    : Mk-CCSD
   Frank Weinhold                                : gennbo (NPA and NBO analysis)
   Christopher J. Cramer and Donald G. Truhlar   : smd solvation model
   Lars Goerigk                                  : TD-DFT with DH, B97 family of functionals
   V. Asgeirsson, H. Jonsson                     : NEB implementation
   FAccTs GmbH                                   : IRC, NEB, NEB-TS, DLPNO-Multilevel, CI-OPT
                                                   MM, QMMM, 2- and 3-layer-ONIOM, Crystal-QMMM,
                                                   LR-CPCM, SF, NACMEs, symmetry and pop. for TD-DFT,
                                                   nearIR, NL-DFT gradient (VV10), updates on ESD,
                                                   ML-optimized integration grids
   S Lehtola, MJT Oliveira, MAL Marques          : LibXC Library
   Liviu Ungur et al                             : ANISO software


 Your calculation uses the libint2 library for the computation of 2-el integrals
 For citations please refer to: http://libint.valeyev.net

 Your ORCA version has been built with support for libXC version: 5.1.0
 For citations please refer to: https://tddft.org/programs/libxc/

 This ORCA versions uses:
   CBLAS   interface :  Fast vector & matrix operations
   LAPACKE interface :  Fast linear algebra routines
   SCALAPACK package :  Parallel linear algebra routines
   Shared memory     :  Shared parallel matrices


Your calculation utilizes the atom-pairwise dispersion correction
with the Becke-Johnson damping scheme (D3BJ)
Cite in your paper:
S.Grimme, S.Ehrlich, L.Goerigk, J Comput Chem, (2011), 32, 1456–1465 
S.Grimme, J.Antony, S.Ehrlich and H.Krieg, J.Chem.Phys., 132, (2010), 154104 
   

================================================================================

----- Orbital basis set information -----
Your calculation utilizes the basis: def2-SVP
   F. Weigend and R. Ahlrichs, Phys. Chem. Chem. Phys. 7, 3297 (2005).

----- AuxJ basis set information -----
Your calculation utilizes the auxiliary basis: def2/J
   F. Weigend, Phys. Chem. Chem. Phys. 8, 1057 (2006).

================================================================================
                                        WARNINGS
                       Please study these warnings very carefully!
================================================================================


WARNING: Geometry Optimization
  ===> : Switching off AutoStart
         For restart on a previous wavefunction, please use MOREAD

INFO   : the flag for use of the SHARK integral package has been found!

================================================================================
                                       INPUT FILE
================================================================================
NAME = /Users/armando/tmp/pubchem_120000_d3bj_cpcm.inp
|  1> %pal nprocs 8
|  2> end
|  3> !b3lyp/g opt d3bj cpcm(methanol)
|  4> *xyz 0 1 
|  5> O    2.3491    1.5230   -0.1177
|  6> O    2.9372   -0.8076    0.0556
|  7> O   -3.3345   -0.1557   -0.5374
|  8> N   -1.7160   -2.1985    0.1502
|  9> C    1.2544    0.7168   -0.0610
| 10> C    1.5903   -0.6142    0.0378
| 11> C   -1.0532    0.1527   -0.0231
| 12> C   -0.7100   -1.2070    0.0778
| 13> C   -0.0607    1.1332   -0.0941
| 14> C    0.6296   -1.6019    0.1091
| 15> C    3.4118    0.5507   -0.0443
| 16> C   -2.4482    0.5750   -0.0562
| 17> C   -2.8498    1.9334    0.5033
| 18> H   -0.2885    2.1894   -0.1860
| 19> H    0.9122   -2.6467    0.1871
| 20> H    4.0323    0.6405   -0.9434
| 21> H    4.0299    0.7719    0.8334
| 22> H   -1.4532   -3.1725    0.2253
| 23> H   -2.6944   -1.9468    0.1517
| 24> H   -2.7744    2.6906   -0.2808
| 25> H   -2.2231    2.2036    1.3575
| 26> H   -3.8831    1.8802    0.8598
| 27> *
| 28> 
| 29>                          ****END OF INPUT****
================================================================================

                       *****************************
                       * Geometry Optimization Run *
                       *****************************

Geometry optimization settings:
Update method            Update   .... BFGS
Choice of coordinates    CoordSys .... Z-matrix Internals
Initial Hessian          InHess   .... Almoef's Model

Convergence Tolerances:
Energy Change            TolE     ....  5.0000e-06 Eh
Max. Gradient            TolMAXG  ....  3.0000e-04 Eh/bohr
RMS Gradient             TolRMSG  ....  1.0000e-04 Eh/bohr
Max. Displacement        TolMAXD  ....  4.0000e-03 bohr
RMS Displacement         TolRMSD  ....  2.0000e-03 bohr
Strict Convergence                ....  False
------------------------------------------------------------------------------
                        ORCA OPTIMIZATION COORDINATE SETUP
------------------------------------------------------------------------------

The optimization will be done in new redundant internal coordinates
Making redundant internal coordinates   ...  (new redundants) done
Evaluating the initial hessian          ...  (Almloef) done
Evaluating the coordinates              ...  done
Calculating the B-matrix                .... done
Calculating the G-matrix                .... done
Diagonalizing the G-matrix              .... done
Small eigenvalue found = 1.652e-02
The first mode is                       ....   49
The number of degrees of freedom        ....   60

    -----------------------------------------------------------------
                    Redundant Internal Coordinates


    -----------------------------------------------------------------
         Definition                    Initial Value    Approx d2E/dq
    -----------------------------------------------------------------
      1. B(C   4,O   0)                  1.3607         0.623161   
      2. B(C   5,C   4)                  1.3763         0.657091   
      3. B(C   5,O   1)                  1.3608         0.622893   
      4. B(C   7,C   6)                  1.4060         0.589196   
      5. B(C   7,N   3)                  1.4143         0.511737   
      6. B(C   8,C   6)                  1.3970         0.609040   
      7. B(C   8,C   4)                  1.3798         0.648545   
      8. B(C   9,C   7)                  1.3969         0.609059   
      9. B(C   9,C   5)                  1.3797         0.648884   
     10. B(C  10,O   1)                  1.4423         0.461794   
     11. B(C  10,O   0)                  1.4423         0.461863   
     12. B(C  11,C   6)                  1.4579         0.486874   
     13. B(C  11,O   2)                  1.2454         0.951890   
     14. B(C  12,C  11)                  1.5230         0.383285   
     15. B(H  13,C   8)                  1.0844         0.367601   
     16. B(H  14,C   9)                  1.0852         0.366571   
     17. B(H  15,C  10)                  1.0961         0.352103   
     18. B(H  16,C  10)                  1.0961         0.352180   
     19. B(H  17,N   3)                  1.0116         0.430137   
     20. B(H  18,N   3)                  1.0103         0.432298   
     21. B(H  19,C  12)                  1.0926         0.356632   
     22. B(H  20,C  12)                  1.0934         0.355693   
     23. B(H  21,C  12)                  1.0944         0.354374   
     24. A(C   4,O   0,C  10)          101.0252         0.406893   
     25. A(C   5,O   1,C  10)          101.0078         0.406852   
     26. A(C   7,N   3,H  17)          119.6028         0.346858   
     27. A(H  17,N   3,H  18)          119.4298         0.302922   
     28. A(C   7,N   3,H  18)          120.9489         0.347151   
     29. A(O   0,C   4,C   5)          112.3108         0.436156   
     30. A(C   5,C   4,C   8)          121.7476         0.442214   
     31. A(O   0,C   4,C   8)          125.9416         0.435129   
     32. A(C   4,C   5,C   9)          121.7418         0.442256   
     33. A(O   1,C   5,C   4)          112.3304         0.436122   
     34. A(O   1,C   5,C   9)          125.9278         0.435136   
     35. A(C   7,C   6,C   8)          120.5976         0.428735   
     36. A(C   8,C   6,C  11)          118.3828         0.414379   
     37. A(C   7,C   6,C  11)          121.0196         0.411948   
     38. A(N   3,C   7,C   6)          120.5315         0.412922   
     39. A(C   6,C   7,C   9)          120.6022         0.428737   
     40. A(N   3,C   7,C   9)          118.8663         0.415362   
     41. A(C   4,C   8,C   6)          117.6526         0.436195   
     42. A(C   6,C   8,H  13)          122.5949         0.353075   
     43. A(C   4,C   8,H  13)          119.7474         0.356858   
     44. A(C   5,C   9,C   7)          117.6583         0.436239   
     45. A(C   7,C   9,H  14)          121.5687         0.352909   
     46. A(C   5,C   9,H  14)          120.7730         0.356720   
     47. A(O   0,C  10,O   1)          113.3257         0.386046   
     48. A(H  15,C  10,H  16)          108.7282         0.288808   
     49. A(O   1,C  10,H  16)          108.6728         0.332625   
     50. A(O   0,C  10,H  16)          108.6765         0.332633   
     51. A(O   1,C  10,H  15)          108.6779         0.332613   
     52. A(O   0,C  10,H  15)          108.6714         0.332621   
     53. A(C   6,C  11,C  12)          120.1541         0.382000   
     54. A(O   2,C  11,C  12)          118.5283         0.427206   
     55. A(O   2,C  11,C   6)          121.3176         0.446024   
     56. A(H  20,C  12,H  21)          107.3805         0.289549   
     57. A(H  19,C  12,H  21)          109.4278         0.289668   
     58. A(C  11,C  12,H  21)          108.9830         0.324832   
     59. A(H  19,C  12,H  20)          110.4775         0.289837   
     60. A(C  11,C  12,H  20)          110.8722         0.325031   
     61. A(C  11,C  12,H  19)          109.6501         0.325172   
     62. D(C   5,C   4,O   0,C  10)      0.0304         0.028512   
     63. D(C   8,C   4,O   0,C  10)    179.9926         0.028512   
     64. D(O   1,C   5,C   4,C   8)   -179.9503         0.030109   
     65. D(C   9,C   5,C   4,O   0)    179.9555         0.030109   
     66. D(C   9,C   5,C   4,C   8)     -0.0085         0.030109   
     67. D(O   1,C   5,C   4,O   0)      0.0136         0.030109   
     68. D(C   4,C   5,O   1,C  10)     -0.0501         0.028486   
     69. D(C   9,C   5,O   1,C  10)   -179.9891         0.028486   
     70. D(N   3,C   7,C   6,C  11)     -0.0254         0.023887   
     71. D(C   9,C   7,N   3,H  18)    178.5737         0.020736   
     72. D(C   9,C   7,C   6,C   8)      0.0112         0.023887   
     73. D(N   3,C   7,C   6,C   8)    179.9715         0.023887   
     74. D(C   9,C   7,N   3,H  17)      0.1433         0.020736   
     75. D(C   6,C   7,N   3,H  18)     -1.3874         0.020736   
     76. D(C   6,C   7,N   3,H  17)   -179.8177         0.020736   
     77. D(C   9,C   7,C   6,C  11)   -179.9858         0.023887   
     78. D(H  13,C   8,C   6,C  11)     -0.8522         0.025613   
     79. D(C   4,C   8,C   6,C  11)    179.9745         0.025613   
     80. D(C   4,C   8,C   6,C   7)     -0.0225         0.025613   
     81. D(H  13,C   8,C   4,C   5)   -179.1765         0.029277   
     82. D(C   6,C   8,C   4,C   5)      0.0214         0.029277   
     83. D(H  13,C   8,C   6,C   7)    179.1508         0.025613   
     84. D(C   6,C   8,C   4,O   0)   -179.9375         0.029277   
     85. D(H  13,C   8,C   4,O   0)      0.8647         0.029277   
     86. D(C   5,C   9,C   7,C   6)      0.0022         0.025615   
     87. D(C   5,C   9,C   7,N   3)   -179.9588         0.025615   
     88. D(H  14,C   9,C   5,C   4)   -179.9747         0.029309   
     89. D(H  14,C   9,C   5,O   1)     -0.0411         0.029309   
     90. D(C   7,C   9,C   5,C   4)     -0.0037         0.029309   
     91. D(H  14,C   9,C   7,N   3)      0.0119         0.025615   
     92. D(C   7,C   9,C   5,O   1)    179.9299         0.029309   
     93. D(H  14,C   9,C   7,C   6)    179.9730         0.025615   
     94. D(H  16,C  10,O   1,C   5)    120.9906         0.016801   
     95. D(H  15,C  10,O   1,C   5)   -120.8448         0.016801   
     96. D(O   0,C  10,O   1,C   5)      0.0714         0.016801   
     97. D(H  16,C  10,O   0,C   4)   -120.9812         0.016807   
     98. D(H  15,C  10,O   0,C   4)    120.8558         0.016807   
     99. D(O   1,C  10,O   0,C   4)     -0.0641         0.016807   
    100. D(C  12,C  11,C   6,C   8)    -30.0036         0.016140   
    101. D(C  12,C  11,C   6,C   7)    149.9934         0.016140   
    102. D(O   2,C  11,C   6,C   8)    149.9695         0.016140   
    103. D(O   2,C  11,C   6,C   7)    -30.0335         0.016140   
    104. D(H  21,C  12,C  11,C   6)   -151.5034         0.010951   
    105. D(H  21,C  12,C  11,O   2)     28.5228         0.010951   
    106. D(H  20,C  12,C  11,C   6)    -33.5177         0.010951   
    107. D(H  20,C  12,C  11,O   2)    146.5085         0.010951   
    108. D(H  19,C  12,C  11,C   6)     88.7391         0.010951   
    109. D(H  19,C  12,C  11,O   2)    -91.2347         0.010951   
    -----------------------------------------------------------------

Number of atoms                         .... 22
Number of degrees of freedom            .... 109

         *************************************************************
         *                GEOMETRY OPTIMIZATION CYCLE   1            *
         *************************************************************
---------------------------------
CARTESIAN COORDINATES (ANGSTROEM)
---------------------------------
  O      2.349100    1.523000   -0.117700
  O      2.937200   -0.807600    0.055600
  O     -3.334500   -0.155700   -0.537400
  N     -1.716000   -2.198500    0.150200
  C      1.254400    0.716800   -0.061000
  C      1.590300   -0.614200    0.037800
  C     -1.053200    0.152700   -0.023100
  C     -0.710000   -1.207000    0.077800
  C     -0.060700    1.133200   -0.094100
  C      0.629600   -1.601900    0.109100
  C      3.411800    0.550700   -0.044300
  C     -2.448200    0.575000   -0.056200
  C     -2.849800    1.933400    0.503300
  H     -0.288500    2.189400   -0.186000
  H      0.912200   -2.646700    0.187100
  H      4.032300    0.640500   -0.943400
  H      4.029900    0.771900    0.833400
  H     -1.453200   -3.172500    0.225300
  H     -2.694400   -1.946800    0.151700
  H     -2.774400    2.690600   -0.280800
  H     -2.223100    2.203600    1.357500
  H     -3.883100    1.880200    0.859800

----------------------------
CARTESIAN COORDINATES (A.U.)
----------------------------
  NO LB      ZA    FRAG     MASS         X           Y           Z
   0 O     8.0000    0    15.999    4.439156    2.878053   -0.222421
   1 O     8.0000    0    15.999    5.550504   -1.526143    0.105069
   2 O     8.0000    0    15.999   -6.301292   -0.294230   -1.015539
   3 N     7.0000    0    14.007   -3.242770   -4.154563    0.283837
   4 C     6.0000    0    12.011    2.370472    1.354556   -0.115273
   5 C     6.0000    0    12.011    3.005231   -1.160670    0.071432
   6 C     6.0000    0    12.011   -1.990260    0.288561   -0.043653
   7 C     6.0000    0    12.011   -1.341706   -2.280899    0.147021
   8 C     6.0000    0    12.011   -0.114706    2.141438   -0.177823
   9 C     6.0000    0    12.011    1.189772   -3.027152    0.206169
  10 C     6.0000    0    12.011    6.447368    1.040672   -0.083715
  11 C     6.0000    0    12.011   -4.626428    1.086593   -0.106203
  12 C     6.0000    0    12.011   -5.385342    3.653597    0.951099
  13 H     1.0000    0     1.008   -0.545186    4.137366   -0.351489
  14 H     1.0000    0     1.008    1.723808   -5.001538    0.353568
  15 H     1.0000    0     1.008    7.619943    1.210370   -1.782768
  16 H     1.0000    0     1.008    7.615407    1.458680    1.574898
  17 H     1.0000    0     1.008   -2.746150   -5.995156    0.425755
  18 H     1.0000    0     1.008   -5.091678   -3.678919    0.286671
  19 H     1.0000    0     1.008   -5.242856    5.084497   -0.530635
  20 H     1.0000    0     1.008   -4.201050    4.164201    2.565303
  21 H     1.0000    0     1.008   -7.337996    3.553063    1.624787

--------------------------------
INTERNAL COORDINATES (ANGSTROEM)
--------------------------------
 O      0   0   0     0.000000000000     0.00000000     0.00000000
 O      1   0   0     2.409894366980     0.00000000     0.00000000
 O      1   2   0     5.941169139151    88.01024129     0.00000000
 N      3   1   2     2.695434631001    67.77105678    10.04137321
 C      1   2   3     1.360713570154    67.68754966     5.09994208
 C      2   1   3     1.360830632371    67.67121677   354.90783388
 C      3   1   2     2.358801547396    12.16095374    40.87297516
 C      7   3   4     1.405969821867    97.19735205     7.01721751
 C      5   1   2     1.379845128991   125.94160204   179.95446223
 C      6   2   1     1.379702674492   125.92780653   180.05334048
 C      1   2   3     1.442250373548    33.33766285   185.16797856
 C      3   1   2     1.245392958066    29.08660788   133.69370797
 C     12   3   1     1.523014566575   118.52834583   156.49023941
 H      9   5   1     1.084387795025   119.74739513     0.86470135
 H     10   6   2     1.085151510159   120.77295612   359.95893221
 H     11   1   2     1.096113634620   108.67135545   120.91990852
 H     11   1   2     1.096053985897   108.67648071   239.08294619
 H      4   3   1     1.011622385082   154.77137850   203.97731888
 H      4   3   1     1.010258234314    39.64920145   162.94686053
 H     13  12   3     1.092634344143   109.65013723   268.76525466
 H     13  12   3     1.093351988154   110.87219323   146.50847371
 H     13  12   3     1.094363458820   108.98303874    28.52281963

---------------------------
INTERNAL COORDINATES (A.U.)
---------------------------
 O      0   0   0     0.000000000000     0.00000000     0.00000000
 O      1   0   0     4.554040365271     0.00000000     0.00000000
 O      1   2   0    11.227182588300    88.01024129     0.00000000
 N      3   1   2     5.093633264479    67.77105678    10.04137321
 C      1   2   3     2.571375994300    67.68754966     5.09994208
 C      2   1   3     2.571597209833    67.67121677   354.90783388
 C      3   1   2     4.457488928849    12.16095374    40.87297516
 C      7   3   4     2.656897915886    97.19735205     7.01721751
 C      5   1   2     2.607529401018   125.94160204   179.95446223
 C      6   2   1     2.607260201028   125.92780653   180.05334048
 C      1   2   3     2.725458222552    33.33766285   185.16797856
 C      3   1   2     2.353451619859    29.08660788   133.69370797
 C     12   3   1     2.878080428800   118.52834583   156.49023941
 H      9   5   1     2.049195955565   119.74739513     0.86470135
 H     10   6   2     2.050639168011   120.77295612   359.95893221
 H     11   1   2     2.071354581089   108.67135545   120.91990852
 H     11   1   2     2.071241861338   108.67648071   239.08294619
 H      4   3   1     1.911689258750   154.77137850   203.97731888
 H      4   3   1     1.909111387393    39.64920145   162.94686053
 H     13  12   3     2.064779674946   109.65013723   268.76525466
 H     13  12   3     2.066135825589   110.87219323   146.50847371
 H     13  12   3     2.068047228140   108.98303874    28.52281963

---------------------
BASIS SET INFORMATION
---------------------
There are 4 groups of distinct atoms

 Group   1 Type O   : 7s4p1d contracted to 3s2p1d pattern {511/31/1}
 Group   2 Type N   : 7s4p1d contracted to 3s2p1d pattern {511/31/1}
 Group   3 Type C   : 7s4p1d contracted to 3s2p1d pattern {511/31/1}
 Group   4 Type H   : 4s1p contracted to 2s1p pattern {31/1}

Atom   0O    basis set group =>   1
Atom   1O    basis set group =>   1
Atom   2O    basis set group =>   1
Atom   3N    basis set group =>   2
Atom   4C    basis set group =>   3
Atom   5C    basis set group =>   3
Atom   6C    basis set group =>   3
Atom   7C    basis set group =>   3
Atom   8C    basis set group =>   3
Atom   9C    basis set group =>   3
Atom  10C    basis set group =>   3
Atom  11C    basis set group =>   3
Atom  12C    basis set group =>   3
Atom  13H    basis set group =>   4
Atom  14H    basis set group =>   4
Atom  15H    basis set group =>   4
Atom  16H    basis set group =>   4
Atom  17H    basis set group =>   4
Atom  18H    basis set group =>   4
Atom  19H    basis set group =>   4
Atom  20H    basis set group =>   4
Atom  21H    basis set group =>   4
---------------------------------
AUXILIARY/J BASIS SET INFORMATION
---------------------------------
There are 4 groups of distinct atoms

 Group   1 Type O   : 12s5p4d2f1g contracted to 6s4p3d1f1g pattern {711111/2111/211/2/1}
 Group   2 Type N   : 12s5p4d2f1g contracted to 6s4p3d1f1g pattern {711111/2111/211/2/1}
 Group   3 Type C   : 12s5p4d2f1g contracted to 6s4p3d1f1g pattern {711111/2111/211/2/1}
 Group   4 Type H   : 5s2p1d contracted to 3s1p1d pattern {311/2/1}

Atom   0O    basis set group =>   1
Atom   1O    basis set group =>   1
Atom   2O    basis set group =>   1
Atom   3N    basis set group =>   2
Atom   4C    basis set group =>   3
Atom   5C    basis set group =>   3
Atom   6C    basis set group =>   3
Atom   7C    basis set group =>   3
Atom   8C    basis set group =>   3
Atom   9C    basis set group =>   3
Atom  10C    basis set group =>   3
Atom  11C    basis set group =>   3
Atom  12C    basis set group =>   3
Atom  13H    basis set group =>   4
Atom  14H    basis set group =>   4
Atom  15H    basis set group =>   4
Atom  16H    basis set group =>   4
Atom  17H    basis set group =>   4
Atom  18H    basis set group =>   4
Atom  19H    basis set group =>   4
Atom  20H    basis set group =>   4
Atom  21H    basis set group =>   4


           ************************************************************
           *        Program running with 8 parallel MPI-processes     *
           *              working on a common directory               *
           ************************************************************
------------------------------------------------------------------------------
                           ORCA GTO INTEGRAL CALCULATION
                           -- RI-GTO INTEGRALS CHOSEN --
------------------------------------------------------------------------------
------------------------------------------------------------------------------
                   ___                                                        
                  /   \      - P O W E R E D   B Y -                         
                 /     \                                                     
                 |  |  |   _    _      __       _____    __    __             
                 |  |  |  | |  | |    /  \     |  _  \  |  |  /  |          
                  \  \/   | |  | |   /    \    | | | |  |  | /  /          
                 / \  \   | |__| |  /  /\  \   | |_| |  |  |/  /          
                |  |  |   |  __  | /  /__\  \  |    /   |      \           
                |  |  |   | |  | | |   __   |  |    \   |  |\   \          
                \     /   | |  | | |  |  |  |  | |\  \  |  | \   \       
                 \___/    |_|  |_| |__|  |__|  |_| \__\ |__|  \__/        
                                                                              
                      - O R C A' S   B I G   F R I E N D -                    
                                      &                                       
                       - I N T E G R A L  F E E D E R -                       
                                                                              
 v1 FN, 2020, v2 2021                                                         
------------------------------------------------------------------------------


Reading SHARK input file /Users/armando/tmp/pubchem_120000_d3bj_cpcm.SHARKINP.tmp ... ok
----------------------
SHARK INTEGRAL PACKAGE
----------------------

Number of atoms                             ...     22
Number of basis functions                   ...    227
Number of shells                            ...    105
Maximum angular momentum                    ...      2
Integral batch strategy                     ... SHARK/LIBINT Hybrid
RI-J (if used) integral strategy            ... SPLIT-RIJ (Revised 2003 algorithm where possible)
Printlevel                                  ...      1
Contraction scheme used                     ... SEGMENTED contraction
Coulomb Range Separation                    ... NOT USED
Exchange Range Separation                   ... NOT USED
Finite Nucleus Model                        ... NOT USED
Auxiliary Coulomb fitting basis             ... AVAILABLE
   # of basis functions in Aux-J            ...    736
   # of shells in Aux-J                     ...    240
   Maximum angular momentum in Aux-J        ...      4
Auxiliary J/K fitting basis                 ... NOT available
Auxiliary Correlation fitting basis         ... NOT available
Auxiliary 'external' fitting basis          ... NOT available
Integral threshold                          ...     2.500000e-11
Primitive cut-off                           ...     2.500000e-12
Primitive pair pre-selection threshold      ...     2.500000e-12

Calculating pre-screening integrals         ... done (  0.0 sec) Dimension = 105
Organizing shell pair data                  ... done (  0.0 sec)
Shell pair information
Total number of shell pairs                 ...      5565
Shell pairs after pre-screening             ...      4789
Total number of primitive shell pairs       ...     20497
Primitive shell pairs kept                  ...     12211
          la=0 lb=0:   1433 shell pairs
          la=1 lb=0:   1738 shell pairs
          la=1 lb=1:    546 shell pairs
          la=2 lb=0:    617 shell pairs
          la=2 lb=1:    380 shell pairs
          la=2 lb=2:     75 shell pairs

Calculating one electron integrals          ... done (  0.0 sec)
Calculating RI/J V-Matrix + Cholesky decomp.... done (  0.1 sec)
Calculating Nuclear repulsion               ... done (  0.0 sec) ENN=    781.478023373484 Eh

SHARK setup successfully completed in   0.3 seconds

Maximum memory used throughout the entire GTOINT-calculation: 12.9 MB


           ************************************************************
           *        Program running with 8 parallel MPI-processes     *
           *              working on a common directory               *
           ************************************************************
-------------------------------------------------------------------------------
                                 ORCA SCF
-------------------------------------------------------------------------------

------------
SCF SETTINGS
------------
Hamiltonian:
 Density Functional     Method          .... DFT(GTOs)
 Exchange Functional    Exchange        .... B88
   X-Alpha parameter    XAlpha          ....  0.666667
   Becke's b parameter  XBeta           ....  0.004200
 Correlation Functional Correlation     .... LYP
 LDA part of GGA corr.  LDAOpt          .... VWN-3
 Gradients option       PostSCFGGA      .... off
 Hybrid DFT is turned on
   Fraction HF Exchange ScalHFX         ....  0.200000
   Scaling of DF-GGA-X  ScalDFX         ....  0.720000
   Scaling of DF-GGA-C  ScalDFC         ....  0.810000
   Scaling of DF-LDA-C  ScalLDAC        ....  1.000000
   Perturbative correction              ....  0.000000
   Density functional embedding theory  .... OFF
   NL short-range parameter             ....  4.800000
 RI-approximation to the Coulomb term is turned on
   Number of AuxJ basis functions       .... 736
   RIJ-COSX (HFX calculated with COS-X)).... on


General Settings:
 Integral files         IntName         .... /Users/armando/tmp/pubchem_120000_d3bj_cpcm
 Hartree-Fock type      HFTyp           .... RHF
 Total Charge           Charge          ....    0
 Multiplicity           Mult            ....    1
 Number of Electrons    NEL             ....   94
 Basis Dimension        Dim             ....  227
 Nuclear Repulsion      ENuc            ....    781.4780233735 Eh

Convergence Acceleration:
 DIIS                   CNVDIIS         .... on
   Start iteration      DIISMaxIt       ....    12
   Startup error        DIISStart       ....  0.200000
   # of expansion vecs  DIISMaxEq       ....     5
   Bias factor          DIISBfac        ....   1.050
   Max. coefficient     DIISMaxC        ....  10.000
 Trust-Rad. Augm. Hess. CNVTRAH         .... auto
   Auto Start mean grad. ratio tolernc. ....  1.125000
   Auto Start start iteration           ....    20
   Auto Start num. interpolation iter.  ....    10
   Max. Number of Micro iterations      ....    16
   Max. Number of Macro iterations      .... Maxiter - #DIIS iter
   Number of Davidson start vectors     ....     2
   Converg. threshold I  (grad. norm)   ....   1.000e-05
   Converg. threshold II (energy diff.) ....   1.000e-08
   Grad. Scal. Fac. for Micro threshold ....   0.100
   Minimum threshold for Micro iter.    ....   0.010
   NR start threshold (gradient norm)   ....   0.001
   Initial trust radius                 ....   0.400
   Minimum AH scaling param. (alpha)    ....   1.000
   Maximum AH scaling param. (alpha)    .... 1000.000
   Orbital update algorithm             .... Taylor
   White noise on init. David. guess    .... on
   Maximum white noise                  ....   0.010
   Quad. conv. algorithm                .... NR
 SOSCF                  CNVSOSCF        .... on
   Start iteration      SOSCFMaxIt      ....   150
   Startup grad/error   SOSCFStart      ....  0.003300
 Level Shifting         CNVShift        .... on
   Level shift para.    LevelShift      ....    0.2500
   Turn off err/grad.   ShiftErr        ....    0.0010
 Zerner damping         CNVZerner       .... off
 Static damping         CNVDamp         .... on
   Fraction old density DampFac         ....    0.7000
   Max. Damping (<1)    DampMax         ....    0.9800
   Min. Damping (>=0)   DampMin         ....    0.0000
   Turn off err/grad.   DampErr         ....    0.1000
 Fernandez-Rico         CNVRico         .... off

SCF Procedure:
 Maximum # iterations   MaxIter         ....   125
 SCF integral mode      SCFMode         .... Direct
   Integral package                     .... SHARK and LIBINT hybrid scheme
 Reset frequency        DirectResetFreq ....    20
 Integral Threshold     Thresh          ....  2.500e-11 Eh
 Primitive CutOff       TCut            ....  2.500e-12 Eh

Convergence Tolerance:
 Convergence Check Mode ConvCheckMode   .... Total+1el-Energy
 Convergence forced     ConvForced      .... 0
 Energy Change          TolE            ....  1.000e-08 Eh
 1-El. energy change                    ....  1.000e-05 Eh
 Orbital Gradient       TolG            ....  1.000e-05
 Orbital Rotation angle TolX            ....  1.000e-05
 DIIS Error             TolErr          ....  5.000e-07


Diagonalization of the overlap matrix:
Smallest eigenvalue                        ... 1.867e-04
Time for diagonalization                   ...    0.008 sec
Threshold for overlap eigenvalues          ... 1.000e-08
Number of eigenvalues below threshold      ... 0
Time for construction of square roots      ...    0.009 sec
Total time needed                          ...    0.017 sec

Time for model grid setup =    0.184 sec

------------------------------
INITIAL GUESS: MODEL POTENTIAL
------------------------------
Loading Hartree-Fock densities                     ... done
Calculating cut-offs                               ... done
Initializing the effective Hamiltonian             ... done
Setting up the integral package (SHARK)            ... done
Starting the Coulomb interaction                   ... done (   0.0 sec)
Reading the grid                                   ... done
Mapping shells                                     ... done
Starting the XC term evaluation                    ... done (   0.0 sec)
  promolecular density results
     # of electrons  =     93.997252969
     EX              =    -80.171361824
     EC              =     -3.249148410
     EX+EC           =    -83.420510233
Transforming the Hamiltonian                       ... done (   0.0 sec)
Diagonalizing the Hamiltonian                      ... done (   0.0 sec)
Back transforming the eigenvectors                 ... done (   0.0 sec)
Now organizing SCF variables                       ... done
                      ------------------
                      INITIAL GUESS DONE (   0.3 sec)
                      ------------------
-------------------
DFT GRID GENERATION
-------------------

General Integration Accuracy     IntAcc      ... 4.388
Radial Grid Type                 RadialGrid  ... OptM3 with GC (2021)
Angular Grid (max. ang.)         AngularGrid ... 4 (Lebedev-302)
Angular grid pruning method      GridPruning ... 4 (adaptive)
Weight generation scheme         WeightScheme... Becke
Basis function cutoff            BFCut       ... 1.0000e-11
Integration weight cutoff        WCut        ... 1.0000e-14
Angular grids for H and He will be reduced by one unit
Partially contracted basis set               ... off
Rotationally invariant grid construction     ... off

Total number of grid points                  ...   106952
Total number of batches                      ...     1682
Average number of points per batch           ...       63
Average number of grid points per atom       ...     4861
Time for grid setup =    0.538 sec

--------------------
COSX GRID GENERATION
--------------------

GRIDX 1
-------
General Integration Accuracy     IntAcc      ... 3.816
Radial Grid Type                 RadialGrid  ... OptM3 with GC (2021)
Angular Grid (max. ang.)         AngularGrid ... 1 (Lebedev-50)
Angular grid pruning method      GridPruning ... 4 (adaptive)
Weight generation scheme         WeightScheme... Becke
Basis function cutoff            BFCut       ... 1.0000e-11
Integration weight cutoff        WCut        ... 1.0000e-14
Angular grids for H and He will be reduced by one unit
Partially contracted basis set               ... on
Rotationally invariant grid construction     ... off

Total number of grid points                  ...    13640
Total number of batches                      ...      223
Average number of points per batch           ...       61
Average number of grid points per atom       ...      620
UseSFitting                                  ... on

GRIDX 2
-------
General Integration Accuracy     IntAcc      ... 4.020
Radial Grid Type                 RadialGrid  ... OptM3 with GC (2021)
Angular Grid (max. ang.)         AngularGrid ... 2 (Lebedev-110)
Angular grid pruning method      GridPruning ... 4 (adaptive)
Weight generation scheme         WeightScheme... Becke
Basis function cutoff            BFCut       ... 1.0000e-11
Integration weight cutoff        WCut        ... 1.0000e-14
Angular grids for H and He will be reduced by one unit
Partially contracted basis set               ... on
Rotationally invariant grid construction     ... off

Total number of grid points                  ...    30018
Total number of batches                      ...      479
Average number of points per batch           ...       62
Average number of grid points per atom       ...     1364
UseSFitting                                  ... on

GRIDX 3
-------
General Integration Accuracy     IntAcc      ... 4.338
Radial Grid Type                 RadialGrid  ... OptM3 with GC (2021)
Angular Grid (max. ang.)         AngularGrid ... 3 (Lebedev-194)
Angular grid pruning method      GridPruning ... 4 (adaptive)
Weight generation scheme         WeightScheme... Becke
Basis function cutoff            BFCut       ... 1.0000e-11
Integration weight cutoff        WCut        ... 1.0000e-14
Angular grids for H and He will be reduced by one unit
Partially contracted basis set               ... on
Rotationally invariant grid construction     ... off

Total number of grid points                  ...    65881
Total number of batches                      ...     1039
Average number of points per batch           ...       63
Average number of grid points per atom       ...     2995
UseSFitting                                  ... on

Time for X-Grid setup             =    0.591 sec


--------------------
CPCM SOLVATION MODEL
--------------------
CPCM parameters:
  Epsilon                                         ...      32.6300
  Refrac                                          ...       1.3290
  Rsolv                                           ...       1.3000
  Surface type                                    ... GAUSSIAN VDW
  Epsilon function type                           ...         CPCM
Radii:
 Radius for O  used is    3.4469 Bohr (=   1.8240 Ang.)
 Radius for N  used is    3.5149 Bohr (=   1.8600 Ang.)
 Radius for C  used is    3.8550 Bohr (=   2.0400 Ang.)
 Radius for H  used is    2.4944 Bohr (=   1.3200 Ang.)
Calculating surface                               ...        done! (  0.0s)
GEPOL surface points                              ...         1195
GEPOL Volume                                      ...    1367.8745
GEPOL Surface-area                                ...     735.3788
Calculating surface distance matrix               ...        done! (  0.0s)
Performing Cholesky decomposition & store         ...        done! (  0.1s)
Overall time for CPCM initialization              ...                 0.2s
--------------
SCF ITERATIONS
--------------
ITER       Energy         Delta-E        Max-DP      RMS-DP      [F,P]     Damp
               ***  Starting incremental Fock matrix formation  ***
  0   -628.0206569074   0.000000000000 0.08811431  0.00232156  0.2518009 0.7000
  1   -628.1611821250  -0.140525217594 0.05494547  0.00155095  0.1088877 0.7000
                               ***Turning on DIIS***
  2   -628.2168553887  -0.055673263654 0.07593536  0.00259244  0.0379662 0.0000
  3   -628.3054386782  -0.088583289516 0.04004876  0.00101044  0.0592971 0.0000
  4   -628.3234230925  -0.017984414281 0.01162137  0.00031232  0.0109713 0.0000
  5   -628.3245880290  -0.001164936498 0.00416083  0.00011351  0.0065121 0.0000
                      *** Initiating the SOSCF procedure ***
                           *** Shutting down DIIS ***
                      *** Re-Reading the Fockian *** 
                      *** Removing any level shift *** 
ITER      Energy       Delta-E        Grad      Rot      Max-DP    RMS-DP
  6   -628.32468769  -0.0000996621  0.000393  0.000393  0.001263  0.000039
               *** Restarting incremental Fock matrix formation ***
  7   -628.32477026  -0.0000825667  0.000171  0.001208  0.001225  0.000033
  8   -628.32477189  -0.0000016355  0.000096  0.000682  0.000486  0.000013
  9   -628.32477260  -0.0000007077  0.000061  0.000254  0.000201  0.000008
 10   -628.32477272  -0.0000001208  0.000031  0.000090  0.000150  0.000003
 11   -628.32477279  -0.0000000696  0.000031  0.000071  0.000090  0.000002
 12   -628.32477280  -0.0000000076  0.000015  0.000013  0.000042  0.000001
 13   -628.32477279   0.0000000060  0.000004  0.000015  0.000025  0.000001
                  ***Gradient check signals convergence***
              ***Rediagonalizing the Fockian in SOSCF/NRSCF***

               *****************************************************
               *                     SUCCESS                       *
               *           SCF CONVERGED AFTER  14 CYCLES          *
               *****************************************************

Old exchange energy                            =    -16.223349853 Eh
New exchange energy                            =    -16.223337117 Eh
Exchange energy change after final integration =      0.000012737 Eh
Total energy after final integration           =   -628.324760069 Eh
Final COS-X integration done in                =     1.825 sec

----------------
TOTAL SCF ENERGY
----------------

Total Energy       :         -628.32476007 Eh          -17097.58595 eV

Components:
Nuclear Repulsion  :          781.47802337 Eh           21265.09811 eV
Electronic Energy  :        -1409.80278344 Eh          -38362.68406 eV
One Electron Energy:        -2405.83621622 Eh          -65466.13168 eV
Two Electron Energy:          996.03343278 Eh           27103.44762 eV
Max COSX asymmetry :            0.00000252 Eh               0.00007 eV
CPCM Dielectric    :           -0.01543695 Eh              -0.42006 eV

Virial components:
Potential Energy   :        -1250.89004269 Eh          -34038.44854 eV
Kinetic Energy     :          622.56528262 Eh           16940.86260 eV
Virial Ratio       :            2.00925120


DFT components:
N(Alpha)           :       47.000025249129 electrons
N(Beta)            :       47.000025249129 electrons
N(Total)           :       94.000050498258 electrons
E(X)               :      -64.522688071221 Eh       
E(C)               :       -4.172120616312 Eh       
E(XC)              :      -68.694808687533 Eh       
DFET-embed. en.    :        0.000000000000 Eh       
CPCM Solvation Model Properties:
Surface-charge          :           -0.01724747
Charge-correction       :           -0.00003508 Eh              -0.00095 eV
Free-energy (cav+disp)  :  This term is not implemented in the current solvation scheme

---------------
SCF CONVERGENCE
---------------

  Last Energy change         ...   -1.3182e-08  Tolerance :   1.0000e-08
  Last MAX-Density change    ...    3.8095e-15  Tolerance :   1.0000e-07
  Last RMS-Density change    ...    6.2593e-17  Tolerance :   5.0000e-09
  Last Orbital Gradient      ...    1.5712e-06  Tolerance :   1.0000e-05
  Last Orbital Rotation      ...    2.6616e-06  Tolerance :   1.0000e-05

             **** THE GBW FILE WAS UPDATED (/Users/armando/tmp/pubchem_120000_d3bj_cpcm.gbw) ****
             **** DENSITY /Users/armando/tmp/pubchem_120000_d3bj_cpcm.scfp WAS UPDATED ****
             **** ENERGY FILE WAS UPDATED (/Users/armando/tmp/pubchem_120000_d3bj_cpcm.en.tmp) ****
             **** THE GBW FILE WAS UPDATED (/Users/armando/tmp/pubchem_120000_d3bj_cpcm.gbw) ****
             **** DENSITY /Users/armando/tmp/pubchem_120000_d3bj_cpcm.scfp WAS UPDATED ****
----------------
ORBITAL ENERGIES
----------------

  NO   OCC          E(Eh)            E(eV) 
   0   2.0000     -19.190999      -522.2136 
   1   2.0000     -19.180610      -521.9309 
   2   2.0000     -19.116220      -520.1788 
   3   2.0000     -14.324375      -389.7861 
   4   2.0000     -10.300392      -280.2879 
   5   2.0000     -10.271970      -279.5145 
   6   2.0000     -10.256806      -279.1019 
   7   2.0000     -10.241707      -278.6910 
   8   2.0000     -10.240948      -278.6704 
   9   2.0000     -10.198343      -277.5110 
  10   2.0000     -10.190003      -277.2841 
  11   2.0000     -10.187610      -277.2190 
  12   2.0000     -10.182833      -277.0890 
  13   2.0000      -1.125530       -30.6272 
  14   2.0000      -1.039907       -28.2973 
  15   2.0000      -1.015281       -27.6272 
  16   2.0000      -0.900415       -24.5015 
  17   2.0000      -0.844325       -22.9753 
  18   2.0000      -0.775388       -21.0994 
  19   2.0000      -0.739541       -20.1239 
  20   2.0000      -0.722338       -19.6558 
  21   2.0000      -0.677171       -18.4268 
  22   2.0000      -0.642405       -17.4807 
  23   2.0000      -0.624519       -16.9940 
  24   2.0000      -0.566449       -15.4139 
  25   2.0000      -0.545437       -14.8421 
  26   2.0000      -0.521090       -14.1796 
  27   2.0000      -0.520324       -14.1587 
  28   2.0000      -0.501448       -13.6451 
  29   2.0000      -0.466776       -12.7016 
  30   2.0000      -0.453389       -12.3373 
  31   2.0000      -0.446738       -12.1563 
  32   2.0000      -0.442267       -12.0347 
  33   2.0000      -0.439288       -11.9536 
  34   2.0000      -0.426232       -11.5984 
  35   2.0000      -0.408856       -11.1255 
  36   2.0000      -0.402315       -10.9475 
  37   2.0000      -0.399914       -10.8822 
  38   2.0000      -0.388498       -10.5716 
  39   2.0000      -0.382337       -10.4039 
  40   2.0000      -0.370806       -10.0902 
  41   2.0000      -0.360580        -9.8119 
  42   2.0000      -0.342704        -9.3255 
  43   2.0000      -0.280170        -7.6238 
  44   2.0000      -0.253275        -6.8920 
  45   2.0000      -0.241093        -6.5605 
  46   2.0000      -0.192788        -5.2460 
  47   0.0000      -0.051153        -1.3920 
  48   0.0000       0.002440         0.0664 
  49   0.0000       0.042893         1.1672 
  50   0.0000       0.075575         2.0565 
  51   0.0000       0.083967         2.2849 
  52   0.0000       0.087276         2.3749 
  53   0.0000       0.102224         2.7817 
  54   0.0000       0.120665         3.2835 
  55   0.0000       0.126315         3.4372 
  56   0.0000       0.129887         3.5344 
  57   0.0000       0.132763         3.6127 
  58   0.0000       0.136725         3.7205 
  59   0.0000       0.152438         4.1481 
  60   0.0000       0.162385         4.4187 
  61   0.0000       0.171534         4.6677 
  62   0.0000       0.180616         4.9148 
  63   0.0000       0.218444         5.9442 
  64   0.0000       0.251469         6.8428 
  65   0.0000       0.261099         7.1049 
  66   0.0000       0.279618         7.6088 
  67   0.0000       0.285779         7.7764 
  68   0.0000       0.287920         7.8347 
  69   0.0000       0.313924         8.5423 
  70   0.0000       0.331378         9.0173 
  71   0.0000       0.350259         9.5310 
  72   0.0000       0.377308        10.2671 
  73   0.0000       0.396549        10.7907 
  74   0.0000       0.403581        10.9820 
  75   0.0000       0.433945        11.8082 
  76   0.0000       0.434905        11.8344 
  77   0.0000       0.446853        12.1595 
  78   0.0000       0.455007        12.3814 
  79   0.0000       0.478941        13.0326 
  80   0.0000       0.492822        13.4104 
  81   0.0000       0.497764        13.5448 
  82   0.0000       0.509941        13.8762 
  83   0.0000       0.518189        14.1007 
  84   0.0000       0.524212        14.2645 
  85   0.0000       0.535537        14.5727 
  86   0.0000       0.552983        15.0474 
  87   0.0000       0.575828        15.6691 
  88   0.0000       0.580740        15.8027 
  89   0.0000       0.586630        15.9630 
  90   0.0000       0.600532        16.3413 
  91   0.0000       0.617346        16.7988 
  92   0.0000       0.622698        16.9445 
  93   0.0000       0.633493        17.2382 
  94   0.0000       0.641326        17.4514 
  95   0.0000       0.648651        17.6507 
  96   0.0000       0.663968        18.0675 
  97   0.0000       0.667491        18.1634 
  98   0.0000       0.672991        18.3130 
  99   0.0000       0.684159        18.6169 
 100   0.0000       0.688578        18.7372 
 101   0.0000       0.706685        19.2299 
 102   0.0000       0.711015        19.3477 
 103   0.0000       0.728289        19.8177 
 104   0.0000       0.747701        20.3460 
 105   0.0000       0.755847        20.5676 
 106   0.0000       0.767720        20.8907 
 107   0.0000       0.792752        21.5719 
 108   0.0000       0.804788        21.8994 
 109   0.0000       0.809522        22.0282 
 110   0.0000       0.832020        22.6404 
 111   0.0000       0.861018        23.4295 
 112   0.0000       0.863816        23.5056 
 113   0.0000       0.892870        24.2962 
 114   0.0000       0.933485        25.4014 
 115   0.0000       0.947740        25.7893 
 116   0.0000       0.966598        26.3025 
 117   0.0000       0.989996        26.9392 
 118   0.0000       1.036697        28.2100 
 119   0.0000       1.038218        28.2514 
 120   0.0000       1.065455        28.9925 
 121   0.0000       1.076091        29.2819 
 122   0.0000       1.086044        29.5528 
 123   0.0000       1.117355        30.4048 
 124   0.0000       1.145338        31.1662 
 125   0.0000       1.175857        31.9967 
 126   0.0000       1.207516        32.8582 
 127   0.0000       1.234170        33.5835 
 128   0.0000       1.249177        33.9918 
 129   0.0000       1.258458        34.2444 
 130   0.0000       1.275469        34.7073 
 131   0.0000       1.314916        35.7807 
 132   0.0000       1.321740        35.9664 
 133   0.0000       1.335710        36.3465 
 134   0.0000       1.364033        37.1172 
 135   0.0000       1.372754        37.3545 
 136   0.0000       1.426565        38.8188 
 137   0.0000       1.456119        39.6230 
 138   0.0000       1.470371        40.0108 
 139   0.0000       1.475063        40.1385 
 140   0.0000       1.498946        40.7884 
 141   0.0000       1.518348        41.3164 
 142   0.0000       1.537550        41.8389 
 143   0.0000       1.580418        43.0054 
 144   0.0000       1.615785        43.9677 
 145   0.0000       1.636185        44.5229 
 146   0.0000       1.657819        45.1115 
 147   0.0000       1.660697        45.1898 
 148   0.0000       1.671969        45.4966 
 149   0.0000       1.693893        46.0932 
 150   0.0000       1.715927        46.6928 
 151   0.0000       1.728719        47.0408 
 152   0.0000       1.742335        47.4113 
 153   0.0000       1.751501        47.6608 
 154   0.0000       1.754614        47.7455 
 155   0.0000       1.764256        48.0078 
 156   0.0000       1.784663        48.5632 
 157   0.0000       1.792071        48.7647 
 158   0.0000       1.804482        49.1024 
 159   0.0000       1.826740        49.7081 
 160   0.0000       1.829691        49.7884 
 161   0.0000       1.837751        50.0078 
 162   0.0000       1.842516        50.1374 
 163   0.0000       1.871358        50.9222 
 164   0.0000       1.875789        51.0428 
 165   0.0000       1.891782        51.4780 
 166   0.0000       1.903218        51.7892 
 167   0.0000       1.924678        52.3731 
 168   0.0000       1.948126        53.0112 
 169   0.0000       1.950525        53.0765 
 170   0.0000       1.992991        54.2320 
 171   0.0000       2.005753        54.5793 
 172   0.0000       2.039084        55.4863 
 173   0.0000       2.077103        56.5208 
 174   0.0000       2.121001        57.7154 
 175   0.0000       2.151560        58.5469 
 176   0.0000       2.154804        58.6352 
 177   0.0000       2.163742        58.8784 
 178   0.0000       2.172150        59.1072 
 179   0.0000       2.213453        60.2311 
 180   0.0000       2.243458        61.0476 
 181   0.0000       2.248973        61.1977 
 182   0.0000       2.264119        61.6098 
 183   0.0000       2.274713        61.8981 
 184   0.0000       2.312037        62.9137 
 185   0.0000       2.324719        63.2588 
 186   0.0000       2.344845        63.8065 
 187   0.0000       2.367282        64.4170 
 188   0.0000       2.400050        65.3087 
 189   0.0000       2.416641        65.7602 
 190   0.0000       2.471656        67.2572 
 191   0.0000       2.502500        68.0965 
 192   0.0000       2.543249        69.2053 
 193   0.0000       2.564267        69.7772 
 194   0.0000       2.591564        70.5200 
 195   0.0000       2.633112        71.6506 
 196   0.0000       2.660145        72.3862 
 197   0.0000       2.684542        73.0501 
 198   0.0000       2.693603        73.2967 
 199   0.0000       2.701036        73.4989 
 200   0.0000       2.723952        74.1225 
 201   0.0000       2.733305        74.3770 
 202   0.0000       2.733901        74.3932 
 203   0.0000       2.769407        75.3594 
 204   0.0000       2.809772        76.4578 
 205   0.0000       2.824264        76.8521 
 206   0.0000       2.829194        76.9863 
 207   0.0000       2.882680        78.4417 
 208   0.0000       2.925033        79.5942 
 209   0.0000       2.943557        80.0983 
 210   0.0000       2.969471        80.8034 
 211   0.0000       3.001673        81.6797 
 212   0.0000       3.024640        82.3046 
 213   0.0000       3.028614        82.4128 
 214   0.0000       3.084844        83.9429 
 215   0.0000       3.120700        84.9186 
 216   0.0000       3.132386        85.2366 
 217   0.0000       3.152580        85.7861 
 218   0.0000       3.195759        86.9610 
 219   0.0000       3.220766        87.6415 
 220   0.0000       3.311562        90.1122 
 221   0.0000       3.377598        91.9091 
 222   0.0000       3.438163        93.5572 
 223   0.0000       3.510650        95.5296 
 224   0.0000       3.541872        96.3792 
 225   0.0000       3.618200        98.4562 
 226   0.0000       3.774214       102.7016 

                    ********************************
                    * MULLIKEN POPULATION ANALYSIS *
                    ********************************

-----------------------
MULLIKEN ATOMIC CHARGES
-----------------------
   0 O :   -0.320220
   1 O :   -0.309196
   2 O :   -0.318286
   3 N :   -0.098165
   4 C :    0.167193
   5 C :    0.189217
   6 C :    0.039593
   7 C :    0.055110
   8 C :   -0.136901
   9 C :   -0.149044
  10 C :    0.397695
  11 C :   -0.017584
  12 C :    0.060421
  13 H :   -0.007455
  14 H :   -0.021976
  15 H :    0.047515
  16 H :    0.047603
  17 H :    0.129601
  18 H :    0.124595
  19 H :    0.057122
  20 H :    0.035281
  21 H :    0.027881
Sum of atomic charges:   -0.0000000

--------------------------------
MULLIKEN REDUCED ORBITAL CHARGES
--------------------------------
  0 O s       :     3.755202  s :     3.755202
      pz      :     1.825134  p :     4.547048
      px      :     1.209077
      py      :     1.512838
      dz2     :     0.002343  d :     0.017970
      dxz     :     0.002330
      dyz     :     0.002477
      dx2y2   :     0.002862
      dxy     :     0.007958
  1 O s       :     3.757962  s :     3.757962
      pz      :     1.801486  p :     4.533224
      px      :     1.300656
      py      :     1.431082
      dz2     :     0.002336  d :     0.018010
      dxz     :     0.002744
      dyz     :     0.002021
      dx2y2   :     0.006968
      dxy     :     0.003940
  2 O s       :     3.759670  s :     3.759670
      pz      :     1.394019  p :     4.543082
      px      :     1.582928
      py      :     1.566135
      dz2     :     0.002349  d :     0.015535
      dxz     :     0.003513
      dyz     :     0.002201
      dx2y2   :     0.002944
      dxy     :     0.004528
  3 N s       :     3.300322  s :     3.300322
      pz      :     1.733639  p :     3.784333
      px      :     1.031664
      py      :     1.019030
      dz2     :     0.001609  d :     0.013510
      dxz     :     0.001182
      dyz     :     0.001136
      dx2y2   :     0.005253
      dxy     :     0.004330
  4 C s       :     2.954913  s :     2.954913
      pz      :     1.080132  p :     2.802686
      px      :     0.798667
      py      :     0.923887
      dz2     :     0.005755  d :     0.075207
      dxz     :     0.015097
      dyz     :     0.009436
      dx2y2   :     0.021990
      dxy     :     0.022929
  5 C s       :     2.980079  s :     2.980079
      pz      :     0.998479  p :     2.752899
      px      :     0.769973
      py      :     0.984446
      dz2     :     0.005759  d :     0.077805
      dxz     :     0.018101
      dyz     :     0.008815
      dx2y2   :     0.025725
      dxy     :     0.019405
  6 C s       :     3.072914  s :     3.072914
      pz      :     1.124902  p :     2.849329
      px      :     0.822377
      py      :     0.902050
      dz2     :     0.003285  d :     0.038165
      dxz     :     0.004173
      dyz     :     0.006279
      dx2y2   :     0.012874
      dxy     :     0.011554
  7 C s       :     3.014928  s :     3.014928
      pz      :     0.943926  p :     2.869268
      px      :     0.901011
      py      :     1.024332
      dz2     :     0.004372  d :     0.060694
      dxz     :     0.011833
      dyz     :     0.011166
      dx2y2   :     0.015329
      dxy     :     0.017994
  8 C s       :     3.402696  s :     3.402696
      pz      :     1.005154  p :     2.698744
      px      :     0.942744
      py      :     0.750847
      dz2     :     0.002784  d :     0.035461
      dxz     :     0.008429
      dyz     :     0.002968
      dx2y2   :     0.011884
      dxy     :     0.009395
  9 C s       :     3.422380  s :     3.422380
      pz      :     1.104231  p :     2.694892
      px      :     0.877696
      py      :     0.712965
      dz2     :     0.002791  d :     0.031771
      dxz     :     0.005535
      dyz     :     0.003259
      dx2y2   :     0.009256
      dxy     :     0.010930
 10 C s       :     2.973950  s :     2.973950
      pz      :     1.089017  p :     2.545583
      px      :     0.819844
      py      :     0.636722
      dz2     :     0.012473  d :     0.082771
      dxz     :     0.016783
      dyz     :     0.011368
      dx2y2   :     0.018816
      dxy     :     0.023332
 11 C s       :     3.185682  s :     3.185682
      pz      :     0.809080  p :     2.740434
      px      :     0.956380
      py      :     0.974974
      dz2     :     0.009305  d :     0.091468
      dxz     :     0.016721
      dyz     :     0.012507
      dx2y2   :     0.032465
      dxy     :     0.020470
 12 C s       :     2.932871  s :     2.932871
      pz      :     0.990069  p :     2.981801
      px      :     1.001064
      py      :     0.990667
      dz2     :     0.003141  d :     0.024907
      dxz     :     0.005399
      dyz     :     0.006907
      dx2y2   :     0.006820
      dxy     :     0.002640
 13 H s       :     0.983774  s :     0.983774
      pz      :     0.004919  p :     0.023681
      px      :     0.003833
      py      :     0.014928
 14 H s       :     0.998183  s :     0.998183
      pz      :     0.005273  p :     0.023793
      px      :     0.003967
      py      :     0.014553
 15 H s       :     0.931768  s :     0.931768
      pz      :     0.012071  p :     0.020717
      px      :     0.006707
      py      :     0.001939
 16 H s       :     0.931667  s :     0.931667
      pz      :     0.011701  p :     0.020730
      px      :     0.006686
      py      :     0.002343
 17 H s       :     0.825564  s :     0.825564
      pz      :     0.012716  p :     0.044835
      px      :     0.008318
      py      :     0.023801
 18 H s       :     0.828148  s :     0.828148
      pz      :     0.012407  p :     0.047257
      px      :     0.025182
      py      :     0.009668
 19 H s       :     0.917972  s :     0.917972
      pz      :     0.009805  p :     0.024906
      px      :     0.005403
      py      :     0.009699
 20 H s       :     0.940732  s :     0.940732
      pz      :     0.011027  p :     0.023987
      px      :     0.008037
      py      :     0.004924
 21 H s       :     0.948647  s :     0.948647
      pz      :     0.005844  p :     0.023473
      px      :     0.013590
      py      :     0.004039


                     *******************************
                     * LOEWDIN POPULATION ANALYSIS *
                     *******************************

----------------------
LOEWDIN ATOMIC CHARGES
----------------------
   0 O :   -0.123109
   1 O :   -0.106911
   2 O :   -0.240718
   3 N :   -0.027778
   4 C :   -0.016320
   5 C :    0.038242
   6 C :   -0.121457
   7 C :    0.057967
   8 C :   -0.026157
   9 C :   -0.087267
  10 C :    0.219717
  11 C :    0.098456
  12 C :   -0.069995
  13 H :    0.043835
  14 H :    0.041970
  15 H :    0.021517
  16 H :    0.021636
  17 H :    0.083703
  18 H :    0.064026
  19 H :    0.052380
  20 H :    0.036868
  21 H :    0.039395

-------------------------------
LOEWDIN REDUCED ORBITAL CHARGES
-------------------------------
  0 O s       :     3.471369  s :     3.471369
      pz      :     1.812746  p :     4.619989
      px      :     1.256827
      py      :     1.550416
      dz2     :     0.003913  d :     0.031751
      dxz     :     0.004239
      dyz     :     0.003011
      dx2y2   :     0.004745
      dxy     :     0.015843
  1 O s       :     3.473424  s :     3.473424
      pz      :     1.786986  p :     4.601933
      px      :     1.347261
      py      :     1.467687
      dz2     :     0.003920  d :     0.031554
      dxz     :     0.004303
      dyz     :     0.002590
      dx2y2   :     0.013158
      dxy     :     0.007583
  2 O s       :     3.559631  s :     3.559631
      pz      :     1.411359  p :     4.654075
      px      :     1.634269
      py      :     1.608447
      dz2     :     0.003376  d :     0.027011
      dxz     :     0.005688
      dyz     :     0.003945
      dx2y2   :     0.005147
      dxy     :     0.008855
  3 N s       :     3.032142  s :     3.032142
      pz      :     1.668252  p :     3.958877
      px      :     1.151986
      py      :     1.138640
      dz2     :     0.002527  d :     0.036758
      dxz     :     0.002239
      dyz     :     0.002194
      dx2y2   :     0.016138
      dxy     :     0.013660
  4 C s       :     2.825108  s :     2.825108
      pz      :     1.054942  p :     3.013273
      px      :     0.970757
      py      :     0.987573
      dz2     :     0.012668  d :     0.177940
      dxz     :     0.030176
      dyz     :     0.019392
      dx2y2   :     0.056498
      dxy     :     0.059206
  5 C s       :     2.831135  s :     2.831135
      pz      :     0.977810  p :     2.949536
      px      :     0.886535
      py      :     1.085192
      dz2     :     0.012511  d :     0.181087
      dxz     :     0.035557
      dyz     :     0.018487
      dx2y2   :     0.066000
      dxy     :     0.048533
  6 C s       :     2.841030  s :     2.841030
      pz      :     1.089160  p :     3.174610
      px      :     1.037392
      py      :     1.048058
      dz2     :     0.008478  d :     0.105817
      dxz     :     0.008816
      dyz     :     0.013321
      dx2y2   :     0.039022
      dxy     :     0.036181
  7 C s       :     2.833925  s :     2.833925
      pz      :     0.936365  p :     2.963957
      px      :     1.010924
      py      :     1.016668
      dz2     :     0.009290  d :     0.144151
      dxz     :     0.024161
      dyz     :     0.023273
      dx2y2   :     0.039418
      dxy     :     0.048009
  8 C s       :     2.851736  s :     2.851736
      pz      :     0.995377  p :     3.081151
      px      :     1.042513
      py      :     1.043261
      dz2     :     0.006572  d :     0.093270
      dxz     :     0.018343
      dyz     :     0.005454
      dx2y2   :     0.034381
      dxy     :     0.028520
  9 C s       :     2.851409  s :     2.851409
      pz      :     1.081640  p :     3.149505
      px      :     1.032807
      py      :     1.035058
      dz2     :     0.006825  d :     0.086353
      dxz     :     0.012034
      dyz     :     0.005570
      dx2y2   :     0.029079
      dxy     :     0.032846
 10 C s       :     2.853573  s :     2.853573
      pz      :     1.113520  p :     2.751406
      px      :     0.878882
      py      :     0.759004
      dz2     :     0.025903  d :     0.175304
      dxz     :     0.041922
      dyz     :     0.021776
      dx2y2   :     0.038062
      dxy     :     0.047642
 11 C s       :     2.879056  s :     2.879056
      pz      :     0.810873  p :     2.814109
      px      :     1.022321
      py      :     0.980915
      dz2     :     0.018261  d :     0.208378
      dxz     :     0.035263
      dyz     :     0.027453
      dx2y2   :     0.078832
      dxy     :     0.048570
 12 C s       :     2.844140  s :     2.844140
      pz      :     1.054937  p :     3.159274
      px      :     1.068390
      py      :     1.035947
      dz2     :     0.007996  d :     0.066582
      dxz     :     0.013956
      dyz     :     0.018778
      dx2y2   :     0.019037
      dxy     :     0.006815
 13 H s       :     0.884774  s :     0.884774
      pz      :     0.015571  p :     0.071391
      px      :     0.012655
      py      :     0.043165
 14 H s       :     0.886121  s :     0.886121
      pz      :     0.017521  p :     0.071909
      px      :     0.012839
      py      :     0.041549
 15 H s       :     0.912689  s :     0.912689
      pz      :     0.036125  p :     0.065794
      px      :     0.022537
      py      :     0.007132
 16 H s       :     0.912577  s :     0.912577
      pz      :     0.034920  p :     0.065788
      px      :     0.022438
      py      :     0.008429
 17 H s       :     0.791827  s :     0.791827
      pz      :     0.041553  p :     0.124471
      px      :     0.019238
      py      :     0.063679
 18 H s       :     0.798768  s :     0.798768
      pz      :     0.041655  p :     0.137206
      px      :     0.071163
      py      :     0.024388
 19 H s       :     0.879124  s :     0.879124
      pz      :     0.027410  p :     0.068496
      px      :     0.013036
      py      :     0.028050
 20 H s       :     0.895597  s :     0.895597
      pz      :     0.030446  p :     0.067535
      px      :     0.021923
      py      :     0.015166
 21 H s       :     0.894355  s :     0.894355
      pz      :     0.015029  p :     0.066250
      px      :     0.038982
      py      :     0.012239


                      *****************************
                      * MAYER POPULATION ANALYSIS *
                      *****************************

  NA   - Mulliken gross atomic population
  ZA   - Total nuclear charge
  QA   - Mulliken gross atomic charge
  VA   - Mayer's total valence
  BVA  - Mayer's bonded valence
  FA   - Mayer's free valence

  ATOM       NA         ZA         QA         VA         BVA        FA
  0 O      8.3202     8.0000    -0.3202     2.1716     2.1716    -0.0000
  1 O      8.3092     8.0000    -0.3092     2.2051     2.2051    -0.0000
  2 O      8.3183     8.0000    -0.3183     2.1664     2.1664    -0.0000
  3 N      7.0982     7.0000    -0.0982     3.2359     3.2359    -0.0000
  4 C      5.8328     6.0000     0.1672     3.8673     3.8673     0.0000
  5 C      5.8108     6.0000     0.1892     3.8849     3.8849    -0.0000
  6 C      5.9604     6.0000     0.0396     3.5120     3.5120    -0.0000
  7 C      5.9449     6.0000     0.0551     4.0807     4.0807    -0.0000
  8 C      6.1369     6.0000    -0.1369     3.8503     3.8503    -0.0000
  9 C      6.1490     6.0000    -0.1490     3.7276     3.7276    -0.0000
 10 C      5.6023     6.0000     0.3977     3.8778     3.8778    -0.0000
 11 C      6.0176     6.0000    -0.0176     4.2064     4.2064    -0.0000
 12 C      5.9396     6.0000     0.0604     3.8864     3.8864    -0.0000
 13 H      1.0075     1.0000    -0.0075     1.0053     1.0053    -0.0000
 14 H      1.0220     1.0000    -0.0220     1.0009     1.0009    -0.0000
 15 H      0.9525     1.0000     0.0475     0.9838     0.9838    -0.0000
 16 H      0.9524     1.0000     0.0476     0.9838     0.9838    -0.0000
 17 H      0.8704     1.0000     0.1296     0.9949     0.9949     0.0000
 18 H      0.8754     1.0000     0.1246     1.0426     1.0426    -0.0000
 19 H      0.9429     1.0000     0.0571     0.9965     0.9965    -0.0000
 20 H      0.9647     1.0000     0.0353     0.9961     0.9961    -0.0000
 21 H      0.9721     1.0000     0.0279     1.0146     1.0146     0.0000

  Mayer bond orders larger than 0.100000
B(  0-O ,  4-C ) :   1.0713 B(  0-O , 10-C ) :   0.9749 B(  1-O ,  5-C ) :   1.1027 
B(  1-O , 10-C ) :   0.9635 B(  2-O , 11-C ) :   1.9792 B(  3-N ,  7-C ) :   1.3222 
B(  3-N , 17-H ) :   0.9346 B(  3-N , 18-H ) :   0.9149 B(  4-C ,  5-C ) :   1.2856 
B(  4-C ,  8-C ) :   1.3889 B(  5-C ,  9-C ) :   1.3480 B(  6-C ,  7-C ) :   1.2997 
B(  6-C ,  8-C ) :   1.2411 B(  6-C , 11-C ) :   0.9943 B(  7-C ,  9-C ) :   1.2361 
B(  8-C ,  9-C ) :   0.1124 B(  8-C , 13-H ) :   1.0199 B(  9-C , 14-H ) :   1.0337 
B( 10-C , 15-H ) :   0.9603 B( 10-C , 16-H ) :   0.9602 B( 11-C , 12-C ) :   1.0665 
B( 12-C , 19-H ) :   0.9309 B( 12-C , 20-H ) :   0.9534 B( 12-C , 21-H ) :   0.9486 


-------
TIMINGS
-------

Total SCF time: 0 days 0 hours 0 min 19 sec 

Total time                  ....      19.842 sec
Sum of individual times     ....      19.223 sec  ( 96.9%)

Fock matrix formation       ....      17.373 sec  ( 87.6%)
  Split-RI-J                ....       1.541 sec  (  8.9% of F)
  Chain of spheres X        ....      10.654 sec  ( 61.3% of F)
  XC integration            ....       2.353 sec  ( 13.5% of F)
    Basis function eval.    ....       0.743 sec  ( 31.6% of XC)
    Density eval.           ....       0.423 sec  ( 18.0% of XC)
    XC-Functional eval.     ....       0.088 sec  (  3.7% of XC)
    XC-Potential eval.      ....       0.458 sec  ( 19.5% of XC)
Diagonalization             ....       0.107 sec  (  0.5%)
Density matrix formation    ....       0.009 sec  (  0.0%)
Population analysis         ....       0.024 sec  (  0.1%)
Initial guess               ....       0.119 sec  (  0.6%)
Orbital Transformation      ....       0.000 sec  (  0.0%)
Orbital Orthonormalization  ....       0.000 sec  (  0.0%)
DIIS solution               ....       0.121 sec  (  0.6%)
SOSCF solution              ....       0.157 sec  (  0.8%)
Grid generation             ....       1.314 sec  (  6.6%)

Maximum memory used throughout the entire SCF-calculation: 59.5 MB


-------------------------------------------------------------------------------
                          DFT DISPERSION CORRECTION                            
                                                                               
                              DFTD3 V3.1  Rev 1                                
                          USING Becke-Johnson damping                          
-------------------------------------------------------------------------------
Gaussians B3LYP functional is recognized, using regular B3LYP params
Active option DFTDOPT                   ...         4   

molecular C6(AA) [au] = 5275.399358 


            DFT-D V3
 parameters
 s6 scaling factor         :     1.0000 
 a1 scaling factor         :     0.3981 
 s8 scaling factor         :     1.9889 
 a2 scaling factor         :     4.4211 
 ad hoc parameters k1-k3   :    16.0000     1.3333    -4.0000 

 Edisp/kcal,au: -26.027381192579  -0.041477267662 
 E6   /kcal   : -12.171314965 
 E8   /kcal   : -13.856066228 
 % E8         :  53.236497846 

-------------------------   ----------------
Dispersion correction           -0.041477268
-------------------------   ----------------


-------------------------   --------------------
FINAL SINGLE POINT ENERGY      -628.366237337110
-------------------------   --------------------



           ************************************************************
           *        Program running with 8 parallel MPI-processes     *
           *              working on a common directory               *
           ************************************************************
------------------------------------------------------------------------------
                         ORCA SCF GRADIENT CALCULATION
------------------------------------------------------------------------------

 ... reading COSX grid (gridx3)
Gradient of the Kohn-Sham DFT energy:
Kohn-Sham wavefunction type      ... RKS
Hartree-Fock exchange scaling    ...    0.200
Number of operators              ...    1
Number of atoms                  ...   22
Basis set dimensions             ...  227
Integral neglect threshold       ... 2.5e-11
Integral primitive cutoff        ... 2.5e-12
SHARK Integral package           ... ON

Nuc. rep. gradient       (SHARK) ... done (  0.0 sec)
HCore & Overlap gradient (SHARK) ... done (  0.0 sec)
RI-J gradient            (SHARK) ... done (  0.3 sec)
COSX-gradient                    ... done (  2.0 sec)
Exchange-correlation gradient    ... done
Dispersion correction            ... done

------------------
CARTESIAN GRADIENT
------------------

   1   O   :   -0.014169067    0.027159019   -0.001476392
   2   O   :    0.014403568   -0.028896062    0.002190681
   3   O   :   -0.008801580   -0.010302693   -0.011849678
   4   N   :   -0.029313682   -0.017524911    0.000641987
   5   C   :    0.026334804   -0.028154448    0.002882187
   6   C   :    0.005647221    0.032238231   -0.002730215
   7   C   :    0.011105985   -0.009714592   -0.001752023
   8   C   :    0.043374622    0.043427700    0.001088054
   9   C   :   -0.019059426   -0.000448729   -0.003761307
  10   C   :   -0.010749319    0.001287291   -0.000796080
  11   C   :   -0.039235364   -0.013966100    0.001204538
  12   C   :    0.029621851    0.007633756    0.010821877
  13   C   :   -0.004571672    0.010216426   -0.003408779
  14   H   :    0.001918717   -0.003286409   -0.000403095
  15   H   :   -0.000342422    0.003886293   -0.000446233
  16   H   :   -0.001324107    0.000627321    0.004546959
  17   H   :   -0.001252803   -0.000130279   -0.004635581
  18   H   :   -0.000961518   -0.001645021   -0.001620450
  19   H   :   -0.001511697   -0.002611737    0.003728722
  20   H   :   -0.000838380   -0.006151403    0.002635375
  21   H   :   -0.004329037   -0.004677451   -0.000431130
  22   H   :    0.004044277    0.000903420    0.003558895

Difference to translation invariance:
           :   -0.0000090311   -0.0001303777   -0.0000116870

Difference to rotation invariance:
           :    0.0000993525   -0.0003610868   -0.0013024093

Norm of the cartesian gradient     ...    0.1169767374
RMS gradient                       ...    0.0143988410
[...]
  14 H :   -0.017252
  15 H :    0.052742
  16 H :    0.053215
  17 H :    0.135244
  18 H :    0.127063
  19 H :    0.047702
  20 H :    0.047793
  21 H :    0.015497
Sum of atomic charges:   -0.0000000

--------------------------------
MULLIKEN REDUCED ORBITAL CHARGES
--------------------------------
  0 O s       :     3.744038  s :     3.744038
      pz      :     1.822589  p :     4.575446
      px      :     1.190866
      py      :     1.561991
      dz2     :     0.002261  d :     0.016944
      dxz     :     0.002411
      dyz     :     0.002248
      dx2y2   :     0.002455
      dxy     :     0.007569
  1 O s       :     3.741954  s :     3.741954
      pz      :     1.790138  p :     4.558502
      px      :     1.298709
      py      :     1.469655
      dz2     :     0.002270  d :     0.017269
      dxz     :     0.002856
      dyz     :     0.001860
      dx2y2   :     0.006585
      dxy     :     0.003698
  2 O s       :     3.739913  s :     3.739913
      pz      :     1.425825  p :     4.560235
      px      :     1.562519
      py      :     1.571891
      dz2     :     0.001759  d :     0.015534
      dxz     :     0.002894
      dyz     :     0.001938
      dx2y2   :     0.003436
      dxy     :     0.005506
  3 N s       :     3.272209  s :     3.272209
      pz      :     1.665317  p :     3.734018
      px      :     1.060112
      py      :     1.008589
      dz2     :     0.001578  d :     0.015162
      dxz     :     0.001452
      dyz     :     0.001460
      dx2y2   :     0.005384
      dxy     :     0.005288
  4 C s       :     2.959355  s :     2.959355
      pz      :     1.083990  p :     2.765567
      px      :     0.775248
      py      :     0.906329
      dz2     :     0.005516  d :     0.071595
      dxz     :     0.015515
      dyz     :     0.007683
      dx2y2   :     0.021206
      dxy     :     0.021675
  5 C s       :     2.995836  s :     2.995836
      pz      :     0.976900  p :     2.718633
      px      :     0.772261
      py      :     0.969472
      dz2     :     0.005665  d :     0.076776
      dxz     :     0.018436
      dyz     :     0.008441
      dx2y2   :     0.025956
      dxy     :     0.018277
  6 C s       :     3.089111  s :     3.089111
      pz      :     1.159377  p :     2.855053
      px      :     0.819819
      py      :     0.875857
      dz2     :     0.003165  d :     0.035089
      dxz     :     0.003974
      dyz     :     0.005181
      dx2y2   :     0.012082
      dxy     :     0.010687
  7 C s       :     3.053545  s :     3.053545
      pz      :     0.911614  p :     2.907139
      px      :     0.938190
      py      :     1.057335
      dz2     :     0.004385  d :     0.063101
      dxz     :     0.011913
      dyz     :     0.012288
      dx2y2   :     0.016510
      dxy     :     0.018006
  8 C s       :     3.392217  s :     3.392217
      pz      :     1.015560  p :     2.736333
      px      :     0.944897
      py      :     0.775877
      dz2     :     0.002785  d :     0.034753
      dxz     :     0.008831
      dyz     :     0.002598
      dx2y2   :     0.011519
      dxy     :     0.009020
  9 C s       :     3.399208  s :     3.399208
      pz      :     1.123655  p :     2.722093
      px      :     0.877360
      py      :     0.721078
      dz2     :     0.002765  d :     0.030419
      dxz     :     0.004811
      dyz     :     0.003271
      dx2y2   :     0.009108
      dxy     :     0.010463
 10 C s       :     2.988941  s :     2.988941
      pz      :     1.075314  p :     2.521861
      px      :     0.821854
      py      :     0.624693
      dz2     :     0.012728  d :     0.084059
      dxz     :     0.018114
      dyz     :     0.010877
      dx2y2   :     0.018060
      dxy     :     0.024281
 11 C s       :     3.175201  s :     3.175201
      pz      :     0.797802  p :     2.760644
      px      :     0.962613
      py      :     1.000229
      dz2     :     0.005030  d :     0.091901
      dxz     :     0.015123
      dyz     :     0.010503
      dx2y2   :     0.037878
      dxy     :     0.023367
 12 C s       :     2.924163  s :     2.924163
      pz      :     1.013941  p :     2.988458
      px      :     0.986571
      py      :     0.987946
      dz2     :     0.004990  d :     0.024832
      dxz     :     0.003499
      dyz     :     0.005127
      dx2y2   :     0.007797
      dxy     :     0.003419
 13 H s       :     0.981299  s :     0.981299
      pz      :     0.004869  p :     0.023599
      px      :     0.004014
      py      :     0.014716
 14 H s       :     0.993679  s :     0.993679
      pz      :     0.005270  p :     0.023573
      px      :     0.003890
      py      :     0.014414
 15 H s       :     0.926862  s :     0.926862
      pz      :     0.012497  p :     0.020396
      px      :     0.005850
      py      :     0.002049
 16 H s       :     0.926389  s :     0.926389
      pz      :     0.011540  p :     0.020396
      px      :     0.006995
      py      :     0.001862
 17 H s       :     0.819833  s :     0.819833
      pz      :     0.011796  p :     0.044923
      px      :     0.008554
      py      :     0.024573
 18 H s       :     0.822280  s :     0.822280
      pz      :     0.011649  p :     0.050657
      px      :     0.027198
      py      :     0.011810
 19 H s       :     0.928050  s :     0.928050
      pz      :     0.011320  p :     0.024248
      px      :     0.006078
      py      :     0.006849
 20 H s       :     0.927956  s :     0.927956
      pz      :     0.011442  p :     0.024251
      px      :     0.006511
      py      :     0.006299
 21 H s       :     0.961675  s :     0.961675
      pz      :     0.004724  p :     0.022828
      px      :     0.014403
      py      :     0.003701


                     *******************************
                     * LOEWDIN POPULATION ANALYSIS *
                     *******************************

----------------------
LOEWDIN ATOMIC CHARGES
----------------------
   0 O :   -0.131855
   1 O :   -0.106901
   2 O :   -0.240685
   3 N :    0.019068
   4 C :   -0.009133
   5 C :    0.050240
   6 C :   -0.138559
   7 C :    0.060100
   8 C :   -0.036430
   9 C :   -0.100981
  10 C :    0.220623
  11 C :    0.082158
  12 C :   -0.074170
  13 H :    0.042659
  14 H :    0.041735
  15 H :    0.023938
  16 H :    0.024207
  17 H :    0.090240
  18 H :    0.059320
  19 H :    0.046133
  20 H :    0.046389
  21 H :    0.031904

-------------------------------
LOEWDIN REDUCED ORBITAL CHARGES
-------------------------------
  0 O s       :     3.458025  s :     3.458025
      pz      :     1.809109  p :     4.643077
      px      :     1.242507
      py      :     1.591460
      dz2     :     0.003664  d :     0.030753
      dxz     :     0.004417
      dyz     :     0.002657
      dx2y2   :     0.004406
      dxy     :     0.015608
  1 O s       :     3.455851  s :     3.455851
      pz      :     1.773269  p :     4.619817
      px      :     1.348161
      py      :     1.498387
      dz2     :     0.003731  d :     0.031233
      dxz     :     0.004479
      dyz     :     0.002355
      dx2y2   :     0.013050
      dxy     :     0.007618
  2 O s       :     3.547600  s :     3.547600
      pz      :     1.420319  p :     4.665832
      px      :     1.616585
      py      :     1.628928
      dz2     :     0.003778  d :     0.027253
      dxz     :     0.003530
      dyz     :     0.002425
      dx2y2   :     0.006093
      dxy     :     0.011427
  3 N s       :     3.021410  s :     3.021410
      pz      :     1.600734  p :     3.918014
      px      :     1.175039
      py      :     1.142241
      dz2     :     0.002907  d :     0.041508
      dxz     :     0.002691
      dyz     :     0.002801
      dx2y2   :     0.017151
      dxy     :     0.015959
  4 C s       :     2.832651  s :     2.832651
      pz      :     1.061721  p :     3.006657
      px      :     0.967228
      py      :     0.977708
      dz2     :     0.012044  d :     0.169825
      dxz     :     0.031244
      dyz     :     0.015618
      dx2y2   :     0.055765
      dxy     :     0.055154
  5 C s       :     2.838930  s :     2.838930
      pz      :     0.958565  p :     2.932140
      px      :     0.887657
      py      :     1.085918
      dz2     :     0.012282  d :     0.178690
      dxz     :     0.036465
      dyz     :     0.017545
      dx2y2   :     0.066632
      dxy     :     0.045766
  6 C s       :     2.854018  s :     2.854018
      pz      :     1.128329  p :     3.187462
      px      :     1.030060
      py      :     1.029073
      dz2     :     0.007925  d :     0.097080
      dxz     :     0.008277
      dyz     :     0.010834
      dx2y2   :     0.036176
      dxy     :     0.033867
  7 C s       :     2.836970  s :     2.836970
      pz      :     0.907727  p :     2.954058
      px      :     1.018827
      py      :     1.027504
      dz2     :     0.009320  d :     0.148873
      dxz     :     0.024452
      dyz     :     0.025684
      dx2y2   :     0.042138
      dxy     :     0.047279
  8 C s       :     2.857583  s :     2.857583
      pz      :     1.001591  p :     3.087989
      px      :     1.043423
      py      :     1.042975
      dz2     :     0.006438  d :     0.090858
      dxz     :     0.018864
      dyz     :     0.004783
      dx2y2   :     0.032734
      dxy     :     0.028040
  9 C s       :     2.858252  s :     2.858252
      pz      :     1.099937  p :     3.159713
      px      :     1.023618
      py      :     1.036158
      dz2     :     0.006671  d :     0.083016
      dxz     :     0.010278
      dyz     :     0.005584
      dx2y2   :     0.029007
      dxy     :     0.031476
 10 C s       :     2.860154  s :     2.860154
      pz      :     1.105630  p :     2.739226
      px      :     0.886585
      py      :     0.747011
      dz2     :     0.026670  d :     0.179997
      dxz     :     0.045206
      dyz     :     0.020908
      dx2y2   :     0.036514
      dxy     :     0.050700
 11 C s       :     2.873251  s :     2.873251
      pz      :     0.783974  p :     2.833988
      px      :     1.026294
      py      :     1.023720
      dz2     :     0.011880  d :     0.210603
      dxz     :     0.029807
      dyz     :     0.018147
      dx2y2   :     0.094197
      dxy     :     0.056573
 12 C s       :     2.848204  s :     2.848204
      pz      :     1.067236  p :     3.159600
      px      :     1.065205
      py      :     1.027159
      dz2     :     0.013554  d :     0.066366
      dxz     :     0.008245
      dyz     :     0.013598
      dx2y2   :     0.022138
      dxy     :     0.008831
 13 H s       :     0.885900  s :     0.885900
      pz      :     0.015503  p :     0.071441
      px      :     0.012929
      py      :     0.043009
 14 H s       :     0.886978  s :     0.886978
      pz      :     0.017489  p :     0.071287
      px      :     0.012619
      py      :     0.041179
 15 H s       :     0.911589  s :     0.911589
      pz      :     0.037929  p :     0.064472
      px      :     0.019277
      py      :     0.007266
 16 H s       :     0.911310  s :     0.911310
      pz      :     0.034834  p :     0.064483
      px      :     0.022971
      py      :     0.006678
 17 H s       :     0.785996  s :     0.785996
      pz      :     0.038835  p :     0.123764
      px      :     0.020685
      py      :     0.064244
 18 H s       :     0.789050  s :     0.789050
      pz      :     0.038889  p :     0.151630
      px      :     0.079379
      py      :     0.033362
 19 H s       :     0.887023  s :     0.887023
      pz      :     0.030925  p :     0.066844
      px      :     0.015517
      py      :     0.020402
 20 H s       :     0.886820  s :     0.886820
      pz      :     0.031047  p :     0.066791
      px      :     0.016965
      py      :     0.018780
 21 H s       :     0.902637  s :     0.902637
      pz      :     0.012116  p :     0.065459
      px      :     0.041586
      py      :     0.011758


                      *****************************
                      * MAYER POPULATION ANALYSIS *
                      *****************************

  NA   - Mulliken gross atomic population
  ZA   - Total nuclear charge
  QA   - Mulliken gross atomic charge
  VA   - Mayer's total valence
  BVA  - Mayer's bonded valence
  FA   - Mayer's free valence

  ATOM       NA         ZA         QA         VA         BVA        FA
  0 O      8.3364     8.0000    -0.3364     2.1636     2.1636    -0.0000
  1 O      8.3177     8.0000    -0.3177     2.2091     2.2091    -0.0000
  2 O      8.3157     8.0000    -0.3157     2.2070     2.2070    -0.0000
  3 N      7.0214     7.0000    -0.0214     3.3160     3.3160    -0.0000
  4 C      5.7965     6.0000     0.2035     3.8294     3.8294    -0.0000
  5 C      5.7912     6.0000     0.2088     3.8852     3.8852    -0.0000
  6 C      5.9793     6.0000     0.0207     3.4930     3.4930    -0.0000
  7 C      6.0238     6.0000    -0.0238     4.0977     4.0977    -0.0000
  8 C      6.1633     6.0000    -0.1633     3.8480     3.8480    -0.0000
  9 C      6.1517     6.0000    -0.1517     3.7245     3.7245    -0.0000
 10 C      5.5949     6.0000     0.4051     3.8727     3.8727    -0.0000
 11 C      6.0277     6.0000    -0.0277     4.2585     4.2585    -0.0000
 12 C      5.9375     6.0000     0.0625     3.9088     3.9088    -0.0000
 13 H      1.0049     1.0000    -0.0049     1.0108     1.0108    -0.0000
 14 H      1.0173     1.0000    -0.0173     1.0010     1.0010    -0.0000
 15 H      0.9473     1.0000     0.0527     0.9798     0.9798    -0.0000
 16 H      0.9468     1.0000     0.0532     0.9798     0.9798    -0.0000
 17 H      0.8648     1.0000     0.1352     0.9932     0.9932    -0.0000
 18 H      0.8729     1.0000     0.1271     1.0627     1.0627    -0.0000
 19 H      0.9523     1.0000     0.0477     0.9930     0.9930    -0.0000
 20 H      0.9522     1.0000     0.0478     0.9930     0.9930    -0.0000
 21 H      0.9845     1.0000     0.0155     1.0170     1.0170    -0.0000

  Mayer bond orders larger than 0.100000
B(  0-O ,  4-C ) :   1.0593 B(  0-O , 10-C ) :   0.9799 B(  1-O ,  5-C ) :   1.1131 
B(  1-O , 10-C ) :   0.9515 B(  2-O , 11-C ) :   1.9316 B(  2-O , 18-H ) :   0.1197 
B(  3-N ,  7-C ) :   1.4262 B(  3-N , 17-H ) :   0.9233 B(  3-N , 18-H ) :   0.8820 
B(  4-C ,  5-C ) :   1.2267 B(  4-C ,  8-C ) :   1.4365 B(  5-C ,  9-C ) :   1.4000 
B(  6-C ,  7-C ) :   1.2389 B(  6-C ,  8-C ) :   1.2005 B(  6-C , 11-C ) :   1.0506 
B(  7-C ,  9-C ) :   1.1957 B(  8-C ,  9-C ) :   0.1054 B(  8-C , 13-H ) :   1.0064 
B(  9-C , 14-H ) :   1.0218 B( 10-C , 15-H ) :   0.9557 B( 10-C , 16-H ) :   0.9558 
B( 11-C , 12-C ) :   1.0990 B( 12-C , 19-H ) :   0.9355 B( 12-C , 20-H ) :   0.9354 
B( 12-C , 21-H ) :   0.9454 

-------
TIMINGS
-------

Total SCF time: 0 days 0 hours 0 min 11 sec 

Total time                  ....      11.171 sec
Sum of individual times     ....      10.765 sec  ( 96.4%)

Fock matrix formation       ....       9.577 sec  ( 85.7%)
  Split-RI-J                ....       0.743 sec  (  7.8% of F)
  Chain of spheres X        ....       6.467 sec  ( 67.5% of F)
  XC integration            ....       1.047 sec  ( 10.9% of F)
    Basis function eval.    ....       0.320 sec  ( 30.5% of XC)
    Density eval.           ....       0.185 sec  ( 17.7% of XC)
    XC-Functional eval.     ....       0.046 sec  (  4.4% of XC)
    XC-Potential eval.      ....       0.147 sec  ( 14.1% of XC)
Diagonalization             ....       0.013 sec  (  0.1%)
Density matrix formation    ....       0.008 sec  (  0.1%)
Population analysis         ....       0.035 sec  (  0.3%)
Initial guess               ....       0.010 sec  (  0.1%)
Orbital Transformation      ....       0.000 sec  (  0.0%)
Orbital Orthonormalization  ....       0.005 sec  (  0.0%)
DIIS solution               ....       0.005 sec  (  0.0%)
SOSCF solution              ....       0.083 sec  (  0.7%)
Grid generation             ....       1.033 sec  (  9.3%)

Maximum memory used throughout the entire SCF-calculation: 59.6 MB


-------------------------------------------------------------------------------
                          DFT DISPERSION CORRECTION                            
                                                                               
                              DFTD3 V3.1  Rev 1                                
                          USING Becke-Johnson damping                          
-------------------------------------------------------------------------------
Gaussians B3LYP functional is recognized, using regular B3LYP params
Active option DFTDOPT                   ...         4   

molecular C6(AA) [au] = 5321.012723 


            DFT-D V3
 parameters
 s6 scaling factor         :     1.0000 
 a1 scaling factor         :     0.3981 
 s8 scaling factor         :     1.9889 
 a2 scaling factor         :     4.4211 
 ad hoc parameters k1-k3   :    16.0000     1.3333    -4.0000 

 Edisp/kcal,au: -26.098922541095  -0.041591276046 
 E6   /kcal   : -12.203203707 
 E8   /kcal   : -13.895718834 
 % E8         :  53.242499999 

-------------------------   ----------------
Dispersion correction           -0.041591276
-------------------------   ----------------


-------------------------   --------------------
FINAL SINGLE POINT ENERGY      -628.386514025157
-------------------------   --------------------

                                *** OPTIMIZATION RUN DONE ***

                            ***************************************
                            *     ORCA property calculations      *
                            ***************************************

                                    ---------------------
                                    Active property flags
                                    ---------------------
   (+) Dipole Moment


------------------------------------------------------------------------------
                       ORCA ELECTRIC PROPERTIES CALCULATION
------------------------------------------------------------------------------

Dipole Moment Calculation                       ... on
Quadrupole Moment Calculation                   ... off
Polarizability Calculation                      ... off
GBWName                                         ... /Users/armando/tmp/pubchem_120000_d3bj_cpcm.gbw
Electron density                                ... /Users/armando/tmp/pubchem_120000_d3bj_cpcm.scfp
The origin for moment calculation is the CENTER OF MASS  = (-0.029138, -0.032207  0.164394)

-------------
DIPOLE MOMENT
-------------
                                X             Y             Z
Electronic contribution:      5.12716      -3.01591      -0.35649
Nuclear contribution   :     -3.71909       2.83973       0.27193
                        -----------------------------------------
Total Dipole Moment    :      1.40807      -0.17618      -0.08456
                        -----------------------------------------
Magnitude (a.u.)       :      1.42157
Magnitude (Debye)      :      3.61333



--------------------
Rotational spectrum 
--------------------
 
Rotational constants in cm-1:     0.056652     0.018232     0.013867 
Rotational constants in MHz :  1698.392956   546.588950   415.718624 

 Dipole components along the rotational axes: 
x,y,z [a.u.] :    -1.405539    -0.212708    -0.007971 
x,y,z [Debye]:    -3.572595    -0.540662    -0.020260 

 

Timings for individual modules:

Sum of individual times         ...      253.289 sec (=   4.221 min)
GTO integral calculation        ...        4.751 sec (=   0.079 min)   1.9 %
SCF iterations                  ...      197.168 sec (=   3.286 min)  77.8 %
SCF Gradient evaluation         ...       50.746 sec (=   0.846 min)  20.0 %
Geometry relaxation             ...        0.624 sec (=   0.010 min)   0.2 %
                             ****ORCA TERMINATED NORMALLY****
TOTAL RUN TIME: 0 days 0 hours 4 minutes 15 seconds 898 msec
