
                                 *****************
                                 * O   R   C   A *
                                 *****************

                                            #,                                       
                                            ###                                      
                                            ####                                     
                                            #####                                    
                                            ######                                   
                                           ########,                                 
                                     ,,################,,,,,                         
                               ,,#################################,,                 
                          ,,##########################################,,             
                       ,#########################################, ''#####,          
                    ,#############################################,,   '####,        
                  ,##################################################,,,,####,       
                ,###########''''           ''''###############################       
              ,#####''   ,,,,##########,,,,          '''####'''          '####       
            ,##' ,,,,###########################,,,                        '##       
           ' ,,###''''                  '''############,,,                           
         ,,##''                                '''############,,,,        ,,,,,,###''
      ,#''                                            '''#######################'''  
     '                                                          ''''####''''         
             ,#######,   #######,   ,#######,      ##                                
            ,#'     '#,  ##    ##  ,#'     '#,    #''#        ######   ,####,        
            ##       ##  ##   ,#'  ##            #'  '#       #        #'  '#        
            ##       ##  #######   ##           ,######,      #####,   #    #        
            '#,     ,#'  ##    ##  '#,     ,#' ,#      #,         ##   #,  ,#        
             '#######'   ##     ##  '#######'  #'      '#     #####' # '####'        



                  #######################################################
                  #                        -***-                        #
                  #          Department of theory and spectroscopy      #
                  #    Directorship and core code : Frank Neese         #
                  #        Max Planck Institute fuer Kohlenforschung    #
                  #                Kaiser Wilhelm Platz 1               #
                  #                 D-45470 Muelheim/Ruhr               #
                  #                      Germany                        #
                  #                                                     #
                  #                  All rights reserved                #
                  #                        -***-                        #
                  #######################################################


                         Program Version 5.0.3 -  RELEASE  -


 With contributions from (in alphabetic order):
   Daniel Aravena         : Magnetic Suceptibility
   Michael Atanasov       : Ab Initio Ligand Field Theory (pilot matlab implementation)
   Alexander A. Auer      : GIAO ZORA, VPT2 properties, NMR spectrum
   Ute Becker             : Parallelization
   Giovanni Bistoni       : ED, misc. LED, open-shell LED, HFLD
   Martin Brehm           : Molecular dynamics
   Dmytro Bykov           : SCF Hessian
   Vijay G. Chilkuri      : MRCI spin determinant printing, contributions to CSF-ICE
   Dipayan Datta          : RHF DLPNO-CCSD density
   Achintya Kumar Dutta   : EOM-CC, STEOM-CC
   Dmitry Ganyushin       : Spin-Orbit,Spin-Spin,Magnetic field MRCI
   Miquel Garcia          : C-PCM and meta-GGA Hessian, CC/C-PCM, Gaussian charge scheme
   Yang Guo               : DLPNO-NEVPT2, F12-NEVPT2, CIM, IAO-localization
   Andreas Hansen         : Spin unrestricted coupled pair/coupled cluster methods
   Benjamin Helmich-Paris : MC-RPA, TRAH-SCF, COSX integrals
   Lee Huntington         : MR-EOM, pCC
   Robert Izsak           : Overlap fitted RIJCOSX, COSX-SCS-MP3, EOM
   Marcus Kettner         : VPT2
   Christian Kollmar      : KDIIS, OOCD, Brueckner-CCSD(T), CCSD density, CASPT2, CASPT2-K
   Simone Kossmann        : Meta GGA functionals, TD-DFT gradient, OOMP2, MP2 Hessian
   Martin Krupicka        : Initial AUTO-CI
   Lucas Lang             : DCDCAS
   Marvin Lechner         : AUTO-CI (C++ implementation), FIC-MRCC
   Dagmar Lenk            : GEPOL surface, SMD
   Dimitrios Liakos       : Extrapolation schemes; Compound Job, initial MDCI parallelization
   Dimitrios Manganas     : Further ROCIS development; embedding schemes
   Dimitrios Pantazis     : SARC Basis sets
   Anastasios Papadopoulos: AUTO-CI, single reference methods and gradients
   Taras Petrenko         : DFT Hessian,TD-DFT gradient, ASA, ECA, R-Raman, ABS, FL, XAS/XES, NRVS
   Peter Pinski           : DLPNO-MP2, DLPNO-MP2 Gradient
   Christoph Reimann      : Effective Core Potentials
   Marius Retegan         : Local ZFS, SOC
   Christoph Riplinger    : Optimizer, TS searches, QM/MM, DLPNO-CCSD(T), (RO)-DLPNO pert. Triples
   Tobias Risthaus        : Range-separated hybrids, TD-DFT gradient, RPA, STAB
   Michael Roemelt        : Original ROCIS implementation
   Masaaki Saitow         : Open-shell DLPNO-CCSD energy and density
   Barbara Sandhoefer     : DKH picture change effects
   Avijit Sen             : IP-ROCIS
   Kantharuban Sivalingam : CASSCF convergence, NEVPT2, FIC-MRCI
   Bernardo de Souza      : ESD, SOC TD-DFT
   Georgi Stoychev        : AutoAux, RI-MP2 NMR, DLPNO-MP2 response
   Willem Van den Heuvel  : Paramagnetic NMR
   Boris Wezisla          : Elementary symmetry handling
   Frank Wennmohs         : Technical directorship


 We gratefully acknowledge several colleagues who have allowed us to
 interface, adapt or use parts of their codes:
   Stefan Grimme, W. Hujo, H. Kruse, P. Pracht,  : VdW corrections, initial TS optimization,
                  C. Bannwarth, S. Ehlert          DFT functionals, gCP, sTDA/sTD-DF
   Ed Valeev, F. Pavosevic, A. Kumar             : LibInt (2-el integral package), F12 methods
   Garnet Chan, S. Sharma, J. Yang, R. Olivares  : DMRG
   Ulf Ekstrom                                   : XCFun DFT Library
   Mihaly Kallay                                 : mrcc  (arbitrary order and MRCC methods)
   Jiri Pittner, Ondrej Demel                    : Mk-CCSD
   Frank Weinhold                                : gennbo (NPA and NBO analysis)
   Christopher J. Cramer and Donald G. Truhlar   : smd solvation model
   Lars Goerigk                                  : TD-DFT with DH, B97 family of functionals
   V. Asgeirsson, H. Jonsson                     : NEB implementation
   FAccTs GmbH                                   : IRC, NEB, NEB-TS, DLPNO-Multilevel, CI-OPT
                                                   MM, QMMM, 2- and 3-layer-ONIOM, Crystal-QMMM,
                                                   LR-CPCM, SF, NACMEs, symmetry and pop. for TD-DFT,
                                                   nearIR, NL-DFT gradient (VV10), updates on ESD,
                                                   ML-optimized integration grids
   S Lehtola, MJT Oliveira, MAL Marques          : LibXC Library
   Liviu Ungur et al                             : ANISO software


 Your calculation uses the libint2 library for the computation of 2-el integrals
 For citations please refer to: http://libint.valeyev.net

 Your ORCA version has been built with support for libXC version: 5.1.0
 For citations please refer to: https://tddft.org/programs/libxc/

 This ORCA versions uses:
   CBLAS   interface :  Fast vector & matrix operations
   LAPACKE interface :  Fast linear algebra routines
   SCALAPACK package :  Parallel linear algebra routines
   Shared memory     :  Shared parallel matrices


================================================================================

----- Orbital basis set information -----
Your calculation utilizes the basis: def2-SVP
   F. Weigend and R. Ahlrichs, Phys. Chem. Chem. Phys. 7, 3297 (2005).

----- AuxJ basis set information -----
Your calculation utilizes the auxiliary basis: def2/J
   F. Weigend, Phys. Chem. Chem. Phys. 8, 1057 (2006).

================================================================================
                                        WARNINGS
                       Please study these warnings very carefully!
================================================================================

WARNING: Old DensityContainer found on disk!
         Will remove this file - 
         If you want to keep old densities, please start your calculation with a different basename. 

WARNING: Gradients needed for Numerical Frequencies
  ===> : Setting RunTyp to EnGrad

WARNING: The environment variable RSH_COMMAND is not set!
  ===> : All Displacements for the Numerical Hessian or Gradient calculation
         will be started on localhost

INFO   : the flag for use of the SHARK integral package has been found!

================================================================================
                                       INPUT FILE
================================================================================
NAME = /Users/armando/tmp/pubchem_120000_raman.inp
|  1> %pal nprocs 8
|  2> end
|  3> !BP86 DEF2-SVP NUMFREQ
|  4> %ELPROP
|  5>    POLAR 1
|  6> END
|  7> *xyz 0 1
|  8> O      2.385344    1.481301    0.032546
|  9> O      2.930579   -0.755101   -0.087087
| 10> O     -3.436429   -0.298427    0.248922
| 11> N     -1.683792   -2.236561    0.093117
| 12> C      1.235687    0.724016    0.058114
| 13> C      1.580614   -0.635378   -0.013725
| 14> C     -1.099383    0.124650    0.151456
| 15> C     -0.737204   -1.266185    0.080267
| 16> C     -0.071975    1.118833    0.139302
| 17> C      0.638647   -1.636380   -0.005077
| 18> C      3.467217    0.572003   -0.071105
| 19> C     -2.513779    0.521401    0.233217
| 20> C     -2.865172    2.001474    0.298667
| 21> H     -0.317599    2.178226    0.193093
| 22> H      0.930921   -2.686251   -0.060971
| 23> H      4.025908    0.748115   -1.008883
| 24> H      4.141162    0.680348    0.798194
| 25> H     -1.418035   -3.207971    0.029782
| 26> H     -2.656699   -1.933927    0.148605
| 27> H     -2.495715    2.542966   -0.586612
| 28> H     -2.424875    2.482375    1.186770
| 29> H     -3.957721    2.090573    0.346009
| 30> *
| 31> 
| 32>                          ****END OF INPUT****
================================================================================

                     *******************************
                     * Energy+Gradient Calculation *
                     *******************************

---------------------------------
CARTESIAN COORDINATES (ANGSTROEM)
---------------------------------
  O      2.385344    1.481301    0.032546
  O      2.930579   -0.755101   -0.087087
  O     -3.436429   -0.298427    0.248922
  N     -1.683792   -2.236561    0.093117
  C      1.235687    0.724016    0.058114
  C      1.580614   -0.635378   -0.013725
  C     -1.099383    0.124650    0.151456
  C     -0.737204   -1.266185    0.080267
  C     -0.071975    1.118833    0.139302
  C      0.638647   -1.636380   -0.005077
  C      3.467217    0.572003   -0.071105
  C     -2.513779    0.521401    0.233217
  C     -2.865172    2.001474    0.298667
  H     -0.317599    2.178226    0.193093
  H      0.930921   -2.686251   -0.060971
  H      4.025908    0.748115   -1.008883
  H      4.141162    0.680348    0.798194
  H     -1.418035   -3.207971    0.029782
  H     -2.656699   -1.933927    0.148605
  H     -2.495715    2.542966   -0.586612
  H     -2.424875    2.482375    1.186770
  H     -3.957721    2.090573    0.346009

----------------------------
CARTESIAN COORDINATES (A.U.)
----------------------------
  NO LB      ZA    FRAG     MASS         X           Y           Z
   0 O     8.0000    0    15.999    4.507647    2.799253    0.061503
   1 O     8.0000    0    15.999    5.537992   -1.426934   -0.164571
   2 O     8.0000    0    15.999   -6.493910   -0.563945    0.470394
   3 N     7.0000    0    14.007   -3.181906   -4.226488    0.175966
   4 C     6.0000    0    12.011    2.335110    1.368192    0.109820
   5 C     6.0000    0    12.011    2.986928   -1.200690   -0.025936
   6 C     6.0000    0    12.011   -2.077533    0.235554    0.286210
   7 C     6.0000    0    12.011   -1.393114   -2.392743    0.151683
   8 C     6.0000    0    12.011   -0.136013    2.114288    0.263243
   9 C     6.0000    0    12.011    1.206868   -3.092310   -0.009594
  10 C     6.0000    0    12.011    6.552091    1.080929   -0.134369
  11 C     6.0000    0    12.011   -4.750354    0.985305    0.440716
  12 C     6.0000    0    12.011   -5.414390    3.782238    0.564399
  13 H     1.0000    0     1.008   -0.600175    4.116251    0.364893
  14 H     1.0000    0     1.008    1.759186   -5.076279   -0.115218
  15 H     1.0000    0     1.008    7.607864    1.413732   -1.906513
  16 H     1.0000    0     1.008    7.825662    1.285671    1.508368
  17 H     1.0000    0     1.008   -2.679698   -6.062187    0.056280
  18 H     1.0000    0     1.008   -5.020434   -3.654592    0.280823
  19 H     1.0000    0     1.008   -4.716218    4.805509   -1.108536
  20 H     1.0000    0     1.008   -4.582350    4.691009    2.242670
  21 H     1.0000    0     1.008   -7.479009    3.950610    0.653862

--------------------------------
INTERNAL COORDINATES (ANGSTROEM)
--------------------------------
 O      0   0   0     0.000000000000     0.00000000     0.00000000
 O      1   0   0     2.305013484889     0.00000000     0.00000000
 O      1   2   0     6.091575427661    86.81525121     0.00000000
 N      3   1   2     2.617704157033    64.80649706     0.28078366
 C      1   2   3     1.376897059151    70.41807392     0.00000000
 C      2   1   3     1.357247612265    71.11536559   359.94777898
 C      3   1   2     2.377031294535     6.73972516     0.29559473
 C      4   3   1     1.355663507519    86.45071268   359.88899981
 C      5   1   2     1.368375628648   129.81626945   179.99590403
 C      6   2   1     1.374547787819   128.14961130   180.10946259
 C      1   2   3     1.417044660811    36.19849079   180.83118917
 C      3   1   2     1.234361219056    24.65128243   180.40538227
 C     12   3   1     1.522621695720   118.20075889   179.89436973
 H      9   5   1     1.088824205051   119.94967860     0.14097247
 H     10   6   2     1.091227449688   121.11587941     0.00000000
 H     11   1   2     1.105702784345   110.21840758   119.14282737
 H     11   1   2     1.105269765013   110.18789797   240.82836093
 H      4   3   1     1.009096374671   153.22823784   181.87251792
 H      4   3   1     1.020399082099    30.54885510   180.29362452
 H     13  12   3     1.101558427299   111.46200165   239.64344735
 H     13  12   3     1.101750497444   111.51298812   119.60678408
 H     13  12   3     1.097197891980   108.09510041   359.64775571

---------------------------
INTERNAL COORDINATES (A.U.)
---------------------------
 O      0   0   0     0.000000000000     0.00000000     0.00000000
 O      1   0   0     4.355844221435     0.00000000     0.00000000
 O      1   2   0    11.511409282404    86.81525121     0.00000000
 N      3   1   2     4.946743956420    64.80649706     0.28078366
 C      1   2   3     2.601958356396    70.41807392     0.00000000
 C      2   1   3     2.564826283099    71.11536559   359.94777898
 C      3   1   2     4.491938158432     6.73972516     0.29559473
 C      4   3   1     2.561832758963    86.45071268   359.88899981
 C      5   1   2     2.585855186476   129.81626945   179.99590403
 C      6   2   1     2.597518876964   128.14961130   180.10946259
 C      1   2   3     2.677826328469    36.19849079   180.83118917
 C      3   1   2     2.332604654349    24.65128243   180.40538227
 C     12   3   1     2.877338010478   118.20075889   179.89436973
 H      9   5   1     2.057579555532   119.94967860     0.14097247
 H     10   6   2     2.062121029728   121.11587941     0.00000000
 H     11   1   2     2.089475447927   110.21840758   119.14282737
 H     11   1   2     2.088657159977   110.18789797   240.82836093
 H      4   3   1     1.906915790861   153.22823784   181.87251792
 H      4   3   1     1.928274812472    30.54885510   180.29362452
 H     13  12   3     2.081643748109   111.46200165   239.64344735
 H     13  12   3     2.082006708081   111.51298812   119.60678408
 H     13  12   3     2.073403530558   108.09510041   359.64775571

---------------------
BASIS SET INFORMATION
---------------------
There are 4 groups of distinct atoms

 Group   1 Type O   : 7s4p1d contracted to 3s2p1d pattern {511/31/1}
 Group   2 Type N   : 7s4p1d contracted to 3s2p1d pattern {511/31/1}
 Group   3 Type C   : 7s4p1d contracted to 3s2p1d pattern {511/31/1}
 Group   4 Type H   : 4s1p contracted to 2s1p pattern {31/1}

Atom   0O    basis set group =>   1
Atom   1O    basis set group =>   1
Atom   2O    basis set group =>   1
Atom   3N    basis set group =>   2
Atom   4C    basis set group =>   3
Atom   5C    basis set group =>   3
Atom   6C    basis set group =>   3
Atom   7C    basis set group =>   3
Atom   8C    basis set group =>   3
Atom   9C    basis set group =>   3
Atom  10C    basis set group =>   3
Atom  11C    basis set group =>   3
Atom  12C    basis set group =>   3
Atom  13H    basis set group =>   4
Atom  14H    basis set group =>   4
Atom  15H    basis set group =>   4
Atom  16H    basis set group =>   4
Atom  17H    basis set group =>   4
Atom  18H    basis set group =>   4
Atom  19H    basis set group =>   4
Atom  20H    basis set group =>   4
Atom  21H    basis set group =>   4
---------------------------------
AUXILIARY/J BASIS SET INFORMATION
---------------------------------
There are 4 groups of distinct atoms

 Group   1 Type O   : 12s5p4d2f1g contracted to 6s4p3d1f1g pattern {711111/2111/211/2/1}
 Group   2 Type N   : 12s5p4d2f1g contracted to 6s4p3d1f1g pattern {711111/2111/211/2/1}
 Group   3 Type C   : 12s5p4d2f1g contracted to 6s4p3d1f1g pattern {711111/2111/211/2/1}
 Group   4 Type H   : 5s2p1d contracted to 3s1p1d pattern {311/2/1}

Atom   0O    basis set group =>   1
Atom   1O    basis set group =>   1
Atom   2O    basis set group =>   1
Atom   3N    basis set group =>   2
Atom   4C    basis set group =>   3
Atom   5C    basis set group =>   3
Atom   6C    basis set group =>   3
Atom   7C    basis set group =>   3
Atom   8C    basis set group =>   3
Atom   9C    basis set group =>   3
Atom  10C    basis set group =>   3
Atom  11C    basis set group =>   3
Atom  12C    basis set group =>   3
Atom  13H    basis set group =>   4
Atom  14H    basis set group =>   4
Atom  15H    basis set group =>   4
Atom  16H    basis set group =>   4
Atom  17H    basis set group =>   4
Atom  18H    basis set group =>   4
Atom  19H    basis set group =>   4
Atom  20H    basis set group =>   4
Atom  21H    basis set group =>   4

Checking for AutoStart:
The File: /Users/armando/tmp/pubchem_120000_raman.gbw exists
Trying to determine its content:
     ... Fine, the file contains calculation information
     ... Fine, the calculation information was read
     ... Fine, the file contains a basis set
     ... Fine, the basis set was read
     ... Fine, the file contains a geometry
     ... Fine, the geometry was read
     ... Fine, the file contains a set of orbitals
     ... Fine, the orbitals can be read
     => possible old guess file was deleted
     => GBW file was renamed to GES file
     => GES file is set as startup file
     => Guess is set to MORead
     ... now leaving AutoStart



           ************************************************************
           *        Program running with 8 parallel MPI-processes     *
           *              working on a common directory               *
           ************************************************************
------------------------------------------------------------------------------
                           ORCA GTO INTEGRAL CALCULATION
                           -- RI-GTO INTEGRALS CHOSEN --
------------------------------------------------------------------------------
------------------------------------------------------------------------------
                   ___                                                        
                  /   \      - P O W E R E D   B Y -                         
                 /     \                                                     
                 |  |  |   _    _      __       _____    __    __             
                 |  |  |  | |  | |    /  \     |  _  \  |  |  /  |          
                  \  \/   | |  | |   /    \    | | | |  |  | /  /          
                 / \  \   | |__| |  /  /\  \   | |_| |  |  |/  /          
                |  |  |   |  __  | /  /__\  \  |    /   |      \           
                |  |  |   | |  | | |   __   |  |    \   |  |\   \          
                \     /   | |  | | |  |  |  |  | |\  \  |  | \   \       
                 \___/    |_|  |_| |__|  |__|  |_| \__\ |__|  \__/        
                                                                              
                      - O R C A' S   B I G   F R I E N D -                    
                                      &                                       
                       - I N T E G R A L  F E E D E R -                       
                                                                              
 v1 FN, 2020, v2 2021                                                         
------------------------------------------------------------------------------


Reading SHARK input file /Users/armando/tmp/pubchem_120000_raman.SHARKINP.tmp ... ok
----------------------
SHARK INTEGRAL PACKAGE
----------------------

Number of atoms                             ...     22
Number of basis functions                   ...    227
Number of shells                            ...    105
Maximum angular momentum                    ...      2
Integral batch strategy                     ... SHARK/LIBINT Hybrid
RI-J (if used) integral strategy            ... SPLIT-RIJ (Revised 2003 algorithm where possible)
Printlevel                                  ...      1
Contraction scheme used                     ... SEGMENTED contraction
Coulomb Range Separation                    ... NOT USED
Exchange Range Separation                   ... NOT USED
Finite Nucleus Model                        ... NOT USED
Auxiliary Coulomb fitting basis             ... AVAILABLE
   # of basis functions in Aux-J            ...    736
   # of shells in Aux-J                     ...    240
   Maximum angular momentum in Aux-J        ...      4
Auxiliary J/K fitting basis                 ... NOT available
Auxiliary Correlation fitting basis         ... NOT available
Auxiliary 'external' fitting basis          ... NOT available
Integral threshold                          ...     2.500000e-11
Primitive cut-off                           ...     2.500000e-12
Primitive pair pre-selection threshold      ...     2.500000e-12

Calculating pre-screening integrals         ... done (  0.0 sec) Dimension = 105
Organizing shell pair data                  ... done (  0.0 sec)
Shell pair information
Total number of shell pairs                 ...      5565
Shell pairs after pre-screening             ...      4765
Total number of primitive shell pairs       ...     20497
Primitive shell pairs kept                  ...     12134
          la=0 lb=0:   1422 shell pairs
          la=1 lb=0:   1730 shell pairs
          la=1 lb=1:    545 shell pairs
          la=2 lb=0:    612 shell pairs
          la=2 lb=1:    381 shell pairs
          la=2 lb=2:     75 shell pairs

Calculating one electron integrals          ... done (  0.0 sec)
Calculating RI/J V-Matrix + Cholesky decomp.... done (  0.1 sec)
Calculating Nuclear repulsion               ... done (  0.0 sec) ENN=    778.423296146541 Eh

SHARK setup successfully completed in   0.2 seconds

Maximum memory used throughout the entire GTOINT-calculation: 12.9 MB


           ************************************************************
           *        Program running with 8 parallel MPI-processes     *
           *              working on a common directory               *
           ************************************************************
-------------------------------------------------------------------------------
                                 ORCA SCF
-------------------------------------------------------------------------------

------------
SCF SETTINGS
------------
Hamiltonian:
 Density Functional     Method          .... DFT(GTOs)
 Exchange Functional    Exchange        .... B88
   X-Alpha parameter    XAlpha          ....  0.666667
   Becke's b parameter  XBeta           ....  0.004200
 Correlation Functional Correlation     .... P86
 LDA part of GGA corr.  LDAOpt          .... PW91-LDA
 Gradients option       PostSCFGGA      .... off
   Density functional embedding theory  .... OFF
   NL short-range parameter             ....  4.400000
 RI-approximation to the Coulomb term is turned on
   Number of AuxJ basis functions       .... 736


General Settings:
 Integral files         IntName         .... /Users/armando/tmp/pubchem_120000_raman
 Hartree-Fock type      HFTyp           .... RHF
 Total Charge           Charge          ....    0
 Multiplicity           Mult            ....    1
 Number of Electrons    NEL             ....   94
 Basis Dimension        Dim             ....  227
 Nuclear Repulsion      ENuc            ....    778.4232961465 Eh

Convergence Acceleration:
 DIIS                   CNVDIIS         .... on
   Start iteration      DIISMaxIt       ....    12
   Startup error        DIISStart       ....  0.200000
   # of expansion vecs  DIISMaxEq       ....     5
   Bias factor          DIISBfac        ....   1.050
   Max. coefficient     DIISMaxC        ....  10.000
 Trust-Rad. Augm. Hess. CNVTRAH         .... auto
   Auto Start mean grad. ratio tolernc. ....  1.125000
   Auto Start start iteration           ....     1
   Auto Start num. interpolation iter.  ....    10
   Max. Number of Micro iterations      ....    16
   Max. Number of Macro iterations      .... Maxiter - #DIIS iter
   Number of Davidson start vectors     ....     2
   Converg. threshold I  (grad. norm)   ....   1.000e-05
   Converg. threshold II (energy diff.) ....   1.000e-08
   Grad. Scal. Fac. for Micro threshold ....   0.100
   Minimum threshold for Micro iter.    ....   0.010
   NR start threshold (gradient norm)   ....   0.001
   Initial trust radius                 ....   0.400
   Minimum AH scaling param. (alpha)    ....   1.000
   Maximum AH scaling param. (alpha)    .... 1000.000
   Orbital update algorithm             .... Taylor
   White noise on init. David. guess    .... on
   Maximum white noise                  ....   0.010
   Quad. conv. algorithm                .... NR
 SOSCF                  CNVSOSCF        .... on
   Start iteration      SOSCFMaxIt      ....   150
   Startup grad/error   SOSCFStart      ....  0.003300
 Level Shifting         CNVShift        .... on
   Level shift para.    LevelShift      ....    0.2500
   Turn off err/grad.   ShiftErr        ....    0.0010
 Zerner damping         CNVZerner       .... off
 Static damping         CNVDamp         .... on
   Fraction old density DampFac         ....    0.7000
   Max. Damping (<1)    DampMax         ....    0.9800
   Min. Damping (>=0)   DampMin         ....    0.0000
   Turn off err/grad.   DampErr         ....    0.1000
 Fernandez-Rico         CNVRico         .... off

SCF Procedure:
 Maximum # iterations   MaxIter         ....   125
 SCF integral mode      SCFMode         .... Direct
   Integral package                     .... SHARK and LIBINT hybrid scheme
 Reset frequency        DirectResetFreq ....    20
 Integral Threshold     Thresh          ....  2.500e-11 Eh
 Primitive CutOff       TCut            ....  2.500e-12 Eh

Convergence Tolerance:
 Convergence Check Mode ConvCheckMode   .... Total+1el-Energy
 Convergence forced     ConvForced      .... 0
 Energy Change          TolE            ....  1.000e-08 Eh
 1-El. energy change                    ....  1.000e-05 Eh
 Orbital Gradient       TolG            ....  1.000e-05
 Orbital Rotation angle TolX            ....  1.000e-05
 DIIS Error             TolErr          ....  5.000e-07


Diagonalization of the overlap matrix:
Smallest eigenvalue                        ... 2.084e-04
Time for diagonalization                   ...    0.009 sec
Threshold for overlap eigenvalues          ... 1.000e-08
Number of eigenvalues below threshold      ... 0
Time for construction of square roots      ...    0.009 sec
Total time needed                          ...    0.019 sec

---------------------
INITIAL GUESS: MOREAD
---------------------
Guess MOs are being read from file: /Users/armando/tmp/pubchem_120000_raman.ges
Input Geometry matches current geometry (good)
Input basis set matches current basis set (good)
MOs were renormalized
MOs were reorthogonalized (Cholesky)
                      ------------------
                      INITIAL GUESS DONE (   0.0 sec)
                      ------------------
-------------------
DFT GRID GENERATION
-------------------

General Integration Accuracy     IntAcc      ... 4.388
Radial Grid Type                 RadialGrid  ... OptM3 with GC (2021)
Angular Grid (max. ang.)         AngularGrid ... 4 (Lebedev-302)
Angular grid pruning method      GridPruning ... 4 (adaptive)
Weight generation scheme         WeightScheme... Becke
Basis function cutoff            BFCut       ... 1.0000e-11
Integration weight cutoff        WCut        ... 1.0000e-14
Angular grids for H and He will be reduced by one unit
Partially contracted basis set               ... off
Rotationally invariant grid construction     ... off

Total number of grid points                  ...   106972
Total number of batches                      ...     1681
Average number of points per batch           ...       63
Average number of grid points per atom       ...     4862
Time for grid setup =    0.558 sec

--------------
SCF ITERATIONS
--------------
ITER       Energy         Delta-E        Max-DP      RMS-DP      [F,P]     Damp
               ***  Starting incremental Fock matrix formation  ***
                      *** Initiating the SOSCF procedure ***
                      *** Re-Reading the Fockian *** 
                      *** Removing any level shift *** 
ITER      Energy       Delta-E        Grad      Rot      Max-DP    RMS-DP
  0   -628.35339720 -628.3533971952  0.000001  0.000001  0.000006  0.000000
               *** Restarting incremental Fock matrix formation ***
                 **** Energy Check signals convergence ****
              ***Rediagonalizing the Fockian in SOSCF/NRSCF***

               *****************************************************
               *                     SUCCESS                       *
               *           SCF CONVERGED AFTER   1 CYCLES          *
               *****************************************************


----------------
TOTAL SCF ENERGY
----------------

Total Energy       :         -628.35339720 Eh          -17098.36520 eV

Components:
Nuclear Repulsion  :          778.42329615 Eh           21181.97476 eV
Electronic Energy  :        -1406.77669334 Eh          -38280.33996 eV
One Electron Energy:        -2399.43352777 Eh          -65291.90567 eV
Two Electron Energy:          992.65683443 Eh           27011.56571 eV

Virial components:
Potential Energy   :        -1250.52709414 Eh          -34028.57221 eV
Kinetic Energy     :          622.17369695 Eh           16930.20701 eV
Virial Ratio       :            2.00993244


DFT components:
N(Alpha)           :       47.000039172279 electrons
N(Beta)            :       47.000039172279 electrons
N(Total)           :       94.000078344557 electrons
E(X)               :      -81.359610296726 Eh       
E(C)               :       -3.487960534735 Eh       
E(XC)              :      -84.847570831461 Eh       
DFET-embed. en.    :        0.000000000000 Eh       

---------------
SCF CONVERGENCE
---------------

  Last Energy change         ...    6.6734e-11  Tolerance :   1.0000e-08
  Last MAX-Density change    ...    1.6753e-05  Tolerance :   1.0000e-07
  Last RMS-Density change    ...    3.8970e-07  Tolerance :   5.0000e-09
  Last Orbital Gradient      ...    2.0426e-06  Tolerance :   1.0000e-05
  Last Orbital Rotation      ...    8.8691e-06  Tolerance :   1.0000e-05

             **** THE GBW FILE WAS UPDATED (/Users/armando/tmp/pubchem_120000_raman.gbw) ****
             **** DENSITY /Users/armando/tmp/pubchem_120000_raman.scfp WAS UPDATED ****
             **** ENERGY FILE WAS UPDATED (/Users/armando/tmp/pubchem_120000_raman.en.tmp) ****
             **** THE GBW FILE WAS UPDATED (/Users/armando/tmp/pubchem_120000_raman.gbw) ****
             **** DENSITY /Users/armando/tmp/pubchem_120000_raman.scfp WAS UPDATED ****
----------------
ORBITAL ENERGIES
----------------

  NO   OCC          E(Eh)            E(eV) 
   0   2.0000     -18.836188      -512.5587 
   1   2.0000     -18.825852      -512.2775 
   2   2.0000     -18.751987      -510.2675 
   3   2.0000     -14.020116      -381.5067 
   4   2.0000     -10.035859      -273.0896 
   5   2.0000      -9.982738      -271.6441 
   6   2.0000      -9.981527      -271.6111 
   7   2.0000      -9.967535      -271.2304 
   8   2.0000      -9.966823      -271.2110 
   9   2.0000      -9.922683      -270.0099 
  10   2.0000      -9.919280      -269.9173 
  11   2.0000      -9.914105      -269.7765 
  12   2.0000      -9.907437      -269.5951 
  13   2.0000      -1.043874       -28.4052 
  14   2.0000      -0.950700       -25.8699 
  15   2.0000      -0.927085       -25.2273 
  16   2.0000      -0.838533       -22.8176 
  17   2.0000      -0.770802       -20.9746 
  18   2.0000      -0.701181       -19.0801 
  19   2.0000      -0.675014       -18.3681 
  20   2.0000      -0.653101       -17.7718 
  21   2.0000      -0.615525       -16.7493 
  22   2.0000      -0.575180       -15.6514 
  23   2.0000      -0.565646       -15.3920 
  24   2.0000      -0.514591       -14.0027 
  25   2.0000      -0.500339       -13.6149 
  26   2.0000      -0.480023       -13.0621 
  27   2.0000      -0.474944       -12.9239 
  28   2.0000      -0.457137       -12.4393 
  29   2.0000      -0.426498       -11.6056 
  30   2.0000      -0.405925       -11.0458 
  31   2.0000      -0.397998       -10.8301 
  32   2.0000      -0.391622       -10.6566 
  33   2.0000      -0.390129       -10.6159 
  34   2.0000      -0.382919       -10.4198 
  35   2.0000      -0.364093        -9.9075 
  36   2.0000      -0.346356        -9.4248 
  37   2.0000      -0.336263        -9.1502 
  38   2.0000      -0.335538        -9.1305 
  39   2.0000      -0.332907        -9.0589 
  40   2.0000      -0.326358        -8.8807 
  41   2.0000      -0.316663        -8.6168 
  42   2.0000      -0.302250        -8.2246 
  43   2.0000      -0.245457        -6.6792 
  44   2.0000      -0.212017        -5.7693 
  45   2.0000      -0.198882        -5.4119 
  46   2.0000      -0.166166        -4.5216 
  47   0.0000      -0.071945        -1.9577 
  48   0.0000      -0.021666        -0.5896 
  49   0.0000       0.016600         0.4517 
  50   0.0000       0.045888         1.2487 
  51   0.0000       0.050377         1.3708 
  52   0.0000       0.052215         1.4208 
  53   0.0000       0.059001         1.6055 
  54   0.0000       0.078737         2.1425 
  55   0.0000       0.092722         2.5231 
  56   0.0000       0.097443         2.6515 
  57   0.0000       0.109030         2.9669 
  58   0.0000       0.115537         3.1439 
  59   0.0000       0.120006         3.2655 
  60   0.0000       0.131873         3.5884 
  61   0.0000       0.139841         3.8053 
  62   0.0000       0.146966         3.9992 
  63   0.0000       0.180727         4.9178 
  64   0.0000       0.206772         5.6266 
  65   0.0000       0.218725         5.9518 
  66   0.0000       0.241824         6.5804 
  67   0.0000       0.247797         6.7429 
  68   0.0000       0.259800         7.0695 
  69   0.0000       0.282794         7.6952 
  70   0.0000       0.302163         8.2223 
  71   0.0000       0.308077         8.3832 
  72   0.0000       0.331176         9.0118 
  73   0.0000       0.354344         9.6422 
  74   0.0000       0.375314        10.2128 
  75   0.0000       0.383086        10.4243 
  76   0.0000       0.396143        10.7796 
  77   0.0000       0.401584        10.9277 
  78   0.0000       0.417265        11.3544 
  79   0.0000       0.419438        11.4135 
  80   0.0000       0.433311        11.7910 
  81   0.0000       0.453400        12.3376 
  82   0.0000       0.459357        12.4997 
  83   0.0000       0.468625        12.7519 
  84   0.0000       0.491146        13.3648 
  85   0.0000       0.491594        13.3770 
  86   0.0000       0.508424        13.8349 
  87   0.0000       0.519601        14.1391 
  88   0.0000       0.527115        14.3435 
  89   0.0000       0.550915        14.9912 
  90   0.0000       0.556401        15.1404 
  91   0.0000       0.557377        15.1670 
  92   0.0000       0.561225        15.2717 
  93   0.0000       0.573299        15.6002 
  94   0.0000       0.588358        16.0100 
  95   0.0000       0.598274        16.2799 
  96   0.0000       0.613499        16.6942 
  97   0.0000       0.619544        16.8586 
  98   0.0000       0.620242        16.8776 
  99   0.0000       0.629836        17.1387 
 100   0.0000       0.635578        17.2950 
 101   0.0000       0.656698        17.8697 
 102   0.0000       0.669196        18.2097 
 103   0.0000       0.674909        18.3652 
 104   0.0000       0.696702        18.9582 
 105   0.0000       0.698203        18.9991 
 106   0.0000       0.722784        19.6679 
 107   0.0000       0.726373        19.7656 
 108   0.0000       0.746929        20.3250 
 109   0.0000       0.758032        20.6271 
 110   0.0000       0.775694        21.1077 
 111   0.0000       0.800643        21.7866 
 112   0.0000       0.820618        22.3301 
 113   0.0000       0.885013        24.0824 
 114   0.0000       0.886974        24.1358 
 115   0.0000       0.925143        25.1744 
 116   0.0000       0.947181        25.7741 
 117   0.0000       0.960711        26.1423 
 118   0.0000       0.978268        26.6200 
 119   0.0000       0.996074        27.1045 
 120   0.0000       1.024532        27.8789 
 121   0.0000       1.044986        28.4355 
 122   0.0000       1.067605        29.0510 
 123   0.0000       1.105893        30.0929 
 124   0.0000       1.113947        30.3120 
 125   0.0000       1.116587        30.3839 
 126   0.0000       1.162526        31.6339 
 127   0.0000       1.176413        32.0118 
 128   0.0000       1.193867        32.4868 
 129   0.0000       1.196949        32.5706 
 130   0.0000       1.206133        32.8206 
 131   0.0000       1.229005        33.4429 
 132   0.0000       1.230904        33.4946 
 133   0.0000       1.271505        34.5994 
 134   0.0000       1.314404        35.7667 
 135   0.0000       1.327672        36.1278 
 136   0.0000       1.337745        36.4019 
 137   0.0000       1.378176        37.5021 
 138   0.0000       1.412655        38.4403 
 139   0.0000       1.420876        38.6640 
 140   0.0000       1.447047        39.3761 
 141   0.0000       1.460822        39.7510 
 142   0.0000       1.491115        40.5753 
 143   0.0000       1.509965        41.0882 
 144   0.0000       1.527491        41.5652 
 145   0.0000       1.562461        42.5167 
 146   0.0000       1.569950        42.7205 
 147   0.0000       1.595036        43.4031 
 148   0.0000       1.606986        43.7283 
 149   0.0000       1.631415        44.3931 
 150   0.0000       1.647138        44.8209 
 151   0.0000       1.648481        44.8575 
 152   0.0000       1.669651        45.4335 
 153   0.0000       1.674176        45.5566 
 154   0.0000       1.686945        45.9041 
 155   0.0000       1.703015        46.3414 
 156   0.0000       1.718852        46.7723 
 157   0.0000       1.723118        46.8884 
 158   0.0000       1.731513        47.1169 
 159   0.0000       1.743997        47.4566 
 160   0.0000       1.757999        47.8376 
 161   0.0000       1.763212        47.9794 
 162   0.0000       1.766400        48.0662 
 163   0.0000       1.778352        48.3914 
 164   0.0000       1.797115        48.9020 
 165   0.0000       1.805158        49.1209 
 166   0.0000       1.809494        49.2388 
 167   0.0000       1.856217        50.5102 
 168   0.0000       1.867901        50.8282 
 169   0.0000       1.892932        51.5093 
 170   0.0000       1.911909        52.0257 
 171   0.0000       1.946220        52.9593 
 172   0.0000       1.971587        53.6496 
 173   0.0000       1.987062        54.0707 
 174   0.0000       2.040771        55.5322 
 175   0.0000       2.056116        55.9498 
 176   0.0000       2.075137        56.4673 
 177   0.0000       2.083355        56.6910 
 178   0.0000       2.096341        57.0443 
 179   0.0000       2.141018        58.2601 
 180   0.0000       2.153204        58.5917 
 181   0.0000       2.162832        58.8537 
 182   0.0000       2.175092        59.1873 
 183   0.0000       2.178861        59.2898 
 184   0.0000       2.203919        59.9717 
 185   0.0000       2.252394        61.2907 
 186   0.0000       2.265690        61.6526 
 187   0.0000       2.284423        62.1623 
 188   0.0000       2.308280        62.8115 
 189   0.0000       2.351122        63.9773 
 190   0.0000       2.376532        64.6687 
 191   0.0000       2.386454        64.9387 
 192   0.0000       2.447044        66.5874 
 193   0.0000       2.451107        66.6980 
 194   0.0000       2.512260        68.3621 
 195   0.0000       2.537250        69.0421 
 196   0.0000       2.578217        70.1569 
 197   0.0000       2.599303        70.7306 
 198   0.0000       2.600212        70.7554 
 199   0.0000       2.603406        70.8423 
 200   0.0000       2.613321        71.1121 
 201   0.0000       2.631813        71.6153 
 202   0.0000       2.642361        71.9023 
 203   0.0000       2.654371        72.2291 
 204   0.0000       2.727378        74.2157 
 205   0.0000       2.744783        74.6893 
 206   0.0000       2.756576        75.0103 
 207   0.0000       2.815941        76.6256 
 208   0.0000       2.817350        76.6640 
 209   0.0000       2.845075        77.4184 
 210   0.0000       2.883522        78.4646 
 211   0.0000       2.914945        79.3197 
 212   0.0000       2.945119        80.1408 
 213   0.0000       2.956867        80.4604 
 214   0.0000       2.998227        81.5859 
 215   0.0000       3.004379        81.7533 
 216   0.0000       3.044589        82.8475 
 217   0.0000       3.060017        83.2673 
 218   0.0000       3.108737        84.5930 
 219   0.0000       3.157949        85.9322 
 220   0.0000       3.212572        87.4185 
 221   0.0000       3.276313        89.1530 
 222   0.0000       3.376342        91.8749 
 223   0.0000       3.384662        92.1013 
 224   0.0000       3.450974        93.9058 
 225   0.0000       3.561774        96.9208 
 226   0.0000       3.643506        99.1448 

                    ********************************
                    * MULLIKEN POPULATION ANALYSIS *
                    ********************************

-----------------------
MULLIKEN ATOMIC CHARGES
-----------------------
   0 O :   -0.275856
   1 O :   -0.263066
   2 O :   -0.234520
   3 N :   -0.013961
   4 C :    0.187082
   5 C :    0.159507
   6 C :    0.060424
   7 C :   -0.036102
   8 C :   -0.165266
   9 C :   -0.127683
  10 C :    0.342734
  11 C :   -0.058838
  12 C :    0.010146
  13 H :   -0.017132
  14 H :   -0.031319
  15 H :    0.045514
  16 H :    0.046334
  17 H :    0.107557
  18 H :    0.130995
  19 H :    0.047259
  20 H :    0.047514
  21 H :    0.038676
Sum of atomic charges:   -0.0000000

--------------------------------
MULLIKEN REDUCED ORBITAL CHARGES
--------------------------------
  0 O s       :     3.745676  s :     3.745676
      pz      :     1.796214  p :     4.513218
      px      :     1.178691
      py      :     1.538313
      dz2     :     0.002198  d :     0.016962
      dxz     :     0.002500
      dyz     :     0.002416
      dx2y2   :     0.002711
      dxy     :     0.007138
  1 O s       :     3.744586  s :     3.744586
      pz      :     1.767184  p :     4.501305
      px      :     1.290291
      py      :     1.443830
      dz2     :     0.002201  d :     0.017174
      dxz     :     0.002919
      dyz     :     0.002007
      dx2y2   :     0.006177
      dxy     :     0.003871
  2 O s       :     3.746844  s :     3.746844
      pz      :     1.385211  p :     4.471919
      px      :     1.542796
      py      :     1.543912
      dz2     :     0.001760  d :     0.015757
      dxz     :     0.002981
      dyz     :     0.001940
      dx2y2   :     0.003675
      dxy     :     0.005401
  3 N s       :     3.279301  s :     3.279301
      pz      :     1.652351  p :     3.720305
      px      :     1.073156
      py      :     0.994798
      dz2     :     0.001670  d :     0.014355
      dxz     :     0.001512
      dyz     :     0.001415
      dx2y2   :     0.005221
      dxy     :     0.004537
  4 C s       :     2.955067  s :     2.955067
      pz      :     1.086001  p :     2.788645
      px      :     0.789075
      py      :     0.913569
      dz2     :     0.005322  d :     0.069206
      dxz     :     0.015304
      dyz     :     0.007724
      dx2y2   :     0.020024
      dxy     :     0.020832
  5 C s       :     3.001763  s :     3.001763
      pz      :     1.002946  p :     2.765210
      px      :     0.779940
      py      :     0.982325
      dz2     :     0.005411  d :     0.073520
      dxz     :     0.017816
      dyz     :     0.008372
      dx2y2   :     0.024536
      dxy     :     0.017384
  6 C s       :     3.066672  s :     3.066672
      pz      :     1.126133  p :     2.839519
      px      :     0.830814
      py      :     0.882572
      dz2     :     0.003001  d :     0.033385
      dxz     :     0.004258
      dyz     :     0.005280
      dx2y2   :     0.011102
      dxy     :     0.009743
  7 C s       :     3.044510  s :     3.044510
      pz      :     0.937738  p :     2.932192
      px      :     0.935627
      py      :     1.058826
      dz2     :     0.004106  d :     0.059400
      dxz     :     0.011564
      dyz     :     0.011550
      dx2y2   :     0.015277
      dxy     :     0.016902
  8 C s       :     3.377083  s :     3.377083
      pz      :     1.032703  p :     2.755859
      px      :     0.954212
      py      :     0.768943
      dz2     :     0.002570  d :     0.032324
      dxz     :     0.008352
      dyz     :     0.002403
      dx2y2   :     0.010968
      dxy     :     0.008031
  9 C s       :     3.354479  s :     3.354479
      pz      :     1.125117  p :     2.744725
      px      :     0.891848
      py      :     0.727759
      dz2     :     0.002629  d :     0.028479
      dxz     :     0.005093
      dyz     :     0.002939
      dx2y2   :     0.008381
      dxy     :     0.009437
 10 C s       :     3.002171  s :     3.002171
      pz      :     1.073850  p :     2.571712
      px      :     0.843563
      py      :     0.654299
      dz2     :     0.011519  d :     0.083384
      dxz     :     0.018331
      dyz     :     0.011728
      dx2y2   :     0.018673
      dxy     :     0.023134
 11 C s       :     3.170491  s :     3.170491
      pz      :     0.839557  p :     2.799396
      px      :     0.965793
      py      :     0.994045
      dz2     :     0.004682  d :     0.088951
      dxz     :     0.014261
      dyz     :     0.010197
      dx2y2   :     0.037538
      dxy     :     0.022273
 12 C s       :     2.943107  s :     2.943107
      pz      :     1.006130  p :     3.024640
      px      :     1.012877
      py      :     1.005633
      dz2     :     0.004194  d :     0.022107
      dxz     :     0.002938
      dyz     :     0.005205
      dx2y2   :     0.006539
      dxy     :     0.003230
 13 H s       :     0.994307  s :     0.994307
      pz      :     0.005496  p :     0.022824
      px      :     0.004289
      py      :     0.013039
 14 H s       :     1.008576  s :     1.008576
      pz      :     0.005979  p :     0.022743
      px      :     0.004171
      py      :     0.012593
 15 H s       :     0.935212  s :     0.935212
      pz      :     0.011471  p :     0.019274
      px      :     0.005474
      py      :     0.002329
 16 H s       :     0.934392  s :     0.934392
      pz      :     0.010522  p :     0.019274
      px      :     0.006590
      py      :     0.002162
 17 H s       :     0.848041  s :     0.848041
      pz      :     0.013312  p :     0.044402
      px      :     0.009201
      py      :     0.021889
 18 H s       :     0.817641  s :     0.817641
      pz      :     0.011836  p :     0.051364
      px      :     0.026279
      py      :     0.013249
 19 H s       :     0.929265  s :     0.929265
      pz      :     0.010483  p :     0.023476
      px      :     0.006247
      py      :     0.006746
 20 H s       :     0.929006  s :     0.929006
      pz      :     0.010578  p :     0.023480
      px      :     0.006556
      py      :     0.006345
 21 H s       :     0.939113  s :     0.939113
      pz      :     0.005003  p :     0.022210
      px      :     0.013262
      py      :     0.003946


                     *******************************
                     * LOEWDIN POPULATION ANALYSIS *
                     *******************************

----------------------
LOEWDIN ATOMIC CHARGES
----------------------
   0 O :   -0.095798
   1 O :   -0.075371
   2 O :   -0.174485
   3 N :    0.027162
   4 C :   -0.012033
   5 C :    0.034583
   6 C :   -0.119846
   7 C :    0.048953
   8 C :   -0.044567
   9 C :   -0.101838
  10 C :    0.186945
  11 C :    0.057212
  12 C :   -0.090709
  13 H :    0.037079
  14 H :    0.033442
  15 H :    0.016199
  16 H :    0.016860
  17 H :    0.073070
  18 H :    0.057905
  19 H :    0.042615
  20 H :    0.042882
  21 H :    0.039739

-------------------------------
LOEWDIN REDUCED ORBITAL CHARGES
-------------------------------
  0 O s       :     3.461033  s :     3.461033
      pz      :     1.787633  p :     4.603318
      px      :     1.237359
      py      :     1.578326
      dz2     :     0.003722  d :     0.031447
      dxz     :     0.004550
      dyz     :     0.002836
      dx2y2   :     0.004726
      dxy     :     0.015612
  1 O s       :     3.459681  s :     3.459681
      pz      :     1.755091  p :     4.583921
      px      :     1.344567
      py      :     1.484262
      dz2     :     0.003771  d :     0.031769
      dxz     :     0.004621
      dyz     :     0.002523
      dx2y2   :     0.012925
      dxy     :     0.007930
  2 O s       :     3.547410  s :     3.547410
      pz      :     1.383247  p :     4.598802
      px      :     1.606638
      py      :     1.608917
      dz2     :     0.003902  d :     0.028273
      dxz     :     0.003748
      dyz     :     0.002571
      dx2y2   :     0.006438
      dxy     :     0.011614
  3 N s       :     3.025713  s :     3.025713
      pz      :     1.589994  p :     3.906236
      px      :     1.180857
      py      :     1.135386
      dz2     :     0.003078  d :     0.040888
      dxz     :     0.002813
      dyz     :     0.002783
      dx2y2   :     0.017122
      dxy     :     0.015093
  4 C s       :     2.835524  s :     2.835524
      pz      :     1.064126  p :     3.008914
      px      :     0.965058
      py      :     0.979730
      dz2     :     0.011890  d :     0.167595
      dxz     :     0.030969
      dyz     :     0.015793
      dx2y2   :     0.054332
      dxy     :     0.054611
  5 C s       :     2.840387  s :     2.840387
      pz      :     0.981065  p :     2.949710
      px      :     0.884232
      py      :     1.084414
      dz2     :     0.012072  d :     0.175320
      dxz     :     0.035467
      dyz     :     0.017609
      dx2y2   :     0.065408
      dxy     :     0.044763
  6 C s       :     2.858353  s :     2.858353
      pz      :     1.103517  p :     3.165711
      px      :     1.032333
      py      :     1.029861
      dz2     :     0.007866  d :     0.095782
      dxz     :     0.008803
      dyz     :     0.011112
      dx2y2   :     0.035229
      dxy     :     0.032772
  7 C s       :     2.836832  s :     2.836832
      pz      :     0.930701  p :     2.969117
      px      :     1.013513
      py      :     1.024903
      dz2     :     0.009144  d :     0.145098
      dxz     :     0.024111
      dyz     :     0.024341
      dx2y2   :     0.040765
      dxy     :     0.046736
  8 C s       :     2.858773  s :     2.858773
      pz      :     1.015238  p :     3.097104
      px      :     1.042712
      py      :     1.039153
      dz2     :     0.006286  d :     0.088691
      dxz     :     0.018216
      dyz     :     0.004493
      dx2y2   :     0.032675
      dxy     :     0.027020
  9 C s       :     2.859734  s :     2.859734
      pz      :     1.101498  p :     3.160585
      px      :     1.027001
      py      :     1.032086
      dz2     :     0.006579  d :     0.081518
      dxz     :     0.010954
      dyz     :     0.005298
      dx2y2   :     0.028389
      dxy     :     0.030298
 10 C s       :     2.864112  s :     2.864112
      pz      :     1.100369  p :     2.767175
      px      :     0.899265
      py      :     0.767541
      dz2     :     0.025427  d :     0.181768
      dxz     :     0.046940
      dyz     :     0.022012
      dx2y2   :     0.037765
      dxy     :     0.049624
 11 C s       :     2.874190  s :     2.874190
      pz      :     0.819412  p :     2.859384
      px      :     1.022131
      py      :     1.017840
      dz2     :     0.011737  d :     0.209213
      dxz     :     0.028181
      dyz     :     0.017624
      dx2y2   :     0.095913
      dxy     :     0.055758
 12 C s       :     2.855187  s :     2.855187
      pz      :     1.063692  p :     3.172507
      px      :     1.072918
      py      :     1.035898
      dz2     :     0.012505  d :     0.063015
      dxz     :     0.007467
      dyz     :     0.014155
      dx2y2   :     0.020247
      dxy     :     0.008641
 13 H s       :     0.891791  s :     0.891791
      pz      :     0.016338  p :     0.071130
      px      :     0.013403
      py      :     0.041389
 14 H s       :     0.895773  s :     0.895773
      pz      :     0.018200  p :     0.070785
      px      :     0.013428
      py      :     0.039158
 15 H s       :     0.919695  s :     0.919695
      pz      :     0.037230  p :     0.064106
      px      :     0.019088
      py      :     0.007789
 16 H s       :     0.919082  s :     0.919082
      pz      :     0.033593  p :     0.064058
      px      :     0.023268
      py      :     0.007198
 17 H s       :     0.803385  s :     0.803385
      pz      :     0.040162  p :     0.123545
      px      :     0.021855
      py      :     0.061528
 18 H s       :     0.786234  s :     0.786234
      pz      :     0.038462  p :     0.155862
      px      :     0.080384
      py      :     0.037015
 19 H s       :     0.890204  s :     0.890204
      pz      :     0.030439  p :     0.067182
      px      :     0.015876
      py      :     0.020866
 20 H s       :     0.889974  s :     0.889974
      pz      :     0.030573  p :     0.067144
      px      :     0.017113
      py      :     0.019458
 21 H s       :     0.894031  s :     0.894031
      pz      :     0.012253  p :     0.066231
      px      :     0.041860
      py      :     0.012117


                      *****************************
                      * MAYER POPULATION ANALYSIS *
                      *****************************

  NA   - Mulliken gross atomic population
  ZA   - Total nuclear charge
  QA   - Mulliken gross atomic charge
  VA   - Mayer's total valence
  BVA  - Mayer's bonded valence
  FA   - Mayer's free valence

  ATOM       NA         ZA         QA         VA         BVA        FA
  0 O      8.2759     8.0000    -0.2759     2.2372     2.2372    -0.0000
  1 O      8.2631     8.0000    -0.2631     2.2748     2.2748     0.0000
  2 O      8.2345     8.0000    -0.2345     2.2984     2.2984    -0.0000
  3 N      7.0140     7.0000    -0.0140     3.3325     3.3325    -0.0000
  4 C      5.8129     6.0000     0.1871     3.8598     3.8598    -0.0000
  5 C      5.8405     6.0000     0.1595     3.9471     3.9471    -0.0000
  6 C      5.9396     6.0000     0.0604     3.5448     3.5448     0.0000
  7 C      6.0361     6.0000    -0.0361     4.1158     4.1158    -0.0000
  8 C      6.1653     6.0000    -0.1653     3.8574     3.8574     0.0000
  9 C      6.1277     6.0000    -0.1277     3.7360     3.7360     0.0000
 10 C      5.6573     6.0000     0.3427     3.9175     3.9175    -0.0000
 11 C      6.0588     6.0000    -0.0588     4.2636     4.2636     0.0000
 12 C      5.9899     6.0000     0.0101     3.9035     3.9035    -0.0000
 13 H      1.0171     1.0000    -0.0171     1.0124     1.0124     0.0000
 14 H      1.0313     1.0000    -0.0313     1.0003     1.0003     0.0000
 15 H      0.9545     1.0000     0.0455     0.9753     0.9753    -0.0000
 16 H      0.9537     1.0000     0.0463     0.9754     0.9754    -0.0000
 17 H      0.8924     1.0000     0.1076     1.0038     1.0038     0.0000
 18 H      0.8690     1.0000     0.1310     1.0655     1.0655     0.0000
 19 H      0.9527     1.0000     0.0473     0.9926     0.9926    -0.0000
 20 H      0.9525     1.0000     0.0475     0.9925     0.9925    -0.0000
 21 H      0.9613     1.0000     0.0387     1.0190     1.0190    -0.0000

  Mayer bond orders larger than 0.100000
B(  0-O ,  4-C ) :   1.0694 B(  0-O , 10-C ) :   1.0120 B(  1-O ,  5-C ) :   1.1185 
B(  1-O , 10-C ) :   0.9808 B(  2-O , 11-C ) :   1.9636 B(  2-O , 18-H ) :   0.1348 
B(  3-N ,  7-C ) :   1.4188 B(  3-N , 17-H ) :   0.9274 B(  3-N , 18-H ) :   0.8654 
B(  4-C ,  5-C ) :   1.2346 B(  4-C ,  8-C ) :   1.4172 B(  5-C ,  9-C ) :   1.4054 
B(  6-C ,  7-C ) :   1.2435 B(  6-C ,  8-C ) :   1.2180 B(  6-C , 11-C ) :   1.0333 
B(  7-C ,  9-C ) :   1.1994 B(  8-C ,  9-C ) :   0.1033 B(  8-C , 13-H ) :   0.9905 
B(  9-C , 14-H ) :   0.9981 B( 10-C , 15-H ) :   0.9433 B( 10-C , 16-H ) :   0.9442 
B( 11-C , 12-C ) :   1.0850 B( 12-C , 19-H ) :   0.9346 B( 12-C , 20-H ) :   0.9342 
B( 12-C , 21-H ) :   0.9432 

-------
TIMINGS
-------

Total SCF time: 0 days 0 hours 0 min 1 sec 

Total time                  ....       1.439 sec
Sum of individual times     ....       1.240 sec  ( 86.2%)

Fock matrix formation       ....       0.589 sec  ( 40.9%)
  Split-RI-J                ....       0.245 sec  ( 41.5% of F)
  XC integration            ....       0.335 sec  ( 56.8% of F)
    Basis function eval.    ....       0.087 sec  ( 25.9% of XC)
    Density eval.           ....       0.059 sec  ( 17.7% of XC)
    XC-Functional eval.     ....       0.012 sec  (  3.5% of XC)
    XC-Potential eval.      ....       0.061 sec  ( 18.1% of XC)
Diagonalization             ....       0.015 sec  (  1.0%)
Density matrix formation    ....       0.002 sec  (  0.2%)
Population analysis         ....       0.032 sec  (  2.2%)
Initial guess               ....       0.012 sec  (  0.8%)
Orbital Transformation      ....       0.000 sec  (  0.0%)
Orbital Orthonormalization  ....       0.006 sec  (  0.4%)
DIIS solution               ....       0.015 sec  (  1.0%)
SOSCF solution              ....       0.018 sec  (  1.3%)
Grid generation             ....       0.558 sec  ( 38.7%)

Maximum memory used throughout the entire SCF-calculation: 31.5 MB

-------------------------   --------------------
FINAL SINGLE POINT ENERGY      -628.353397195125
-------------------------   --------------------



           ************************************************************
           *        Program running with 8 parallel MPI-processes     *
           *              working on a common directory               *
           ************************************************************
------------------------------------------------------------------------------
                         ORCA SCF GRADIENT CALCULATION
------------------------------------------------------------------------------

Gradient of the Kohn-Sham DFT energy:
Kohn-Sham wavefunction type      ... RKS
Hartree-Fock exchange scaling    ...    0.000
Number of operators              ...    1
Number of atoms                  ...   22
Basis set dimensions             ...  227
Integral neglect threshold       ... 2.5e-11
Integral primitive cutoff        ... 2.5e-12
SHARK Integral package           ... ON

Nuc. rep. gradient       (SHARK) ... done (  0.0 sec)
HCore & Overlap gradient (SHARK) ... done (  0.1 sec)
RI-J gradient            (SHARK) ... done (  0.3 sec)
Exchange-correlation gradient    ... done

------------------
CARTESIAN GRADIENT
------------------

   1   O   :    0.000129005   -0.008165843   -0.000434924
   2   O   :   -0.005581868    0.007695859    0.000467961
   3   O   :    0.014368952    0.013884623   -0.000214476
   4   N   :   -0.002159857    0.000529864    0.000045495
   5   C   :   -0.002862377   -0.001570430    0.000128122
   6   C   :   -0.001453620   -0.000119737    0.000114068
   7   C   :    0.002974822   -0.002887898   -0.000318344
   8   C   :   -0.000573270    0.001293036    0.000063806
   9   C   :    0.003213861   -0.001172040   -0.000158492
  10   C   :    0.001758300    0.002685843   -0.000021356
  11   C   :    0.002054028    0.000334859   -0.000050032
  12   C   :   -0.011280054   -0.009276739    0.000285782
  13   C   :   -0.001614638    0.002015171    0.000158285
  14   H   :    0.001713615   -0.005513081   -0.000323181
  15   H   :   -0.001519797    0.005287038    0.000284456
  16   H   :   -0.003200068   -0.000961167    0.004966949
  17   H   :   -0.003801759   -0.000589799   -0.004573280
  18   H   :   -0.001932957    0.006597792    0.000389603
  19   H   :    0.008252102   -0.004352174   -0.000543110
  20   H   :   -0.001585210   -0.002793560    0.003921044
  21   H   :   -0.001868625   -0.002510917   -0.003966856
  22   H   :    0.004969415   -0.000410700   -0.000221519

Difference to translation invariance:
           :   -0.0000000000   -0.0000000000   -0.0000000000

Difference to rotation invariance:
           :    0.0003672712    0.0003927481   -0.0002863197

Norm of the cartesian gradient     ...    0.0344456444
RMS gradient                       ...    0.0042399657
MAX gradient                       ...    0.0143689517

-------
TIMINGS
-------

Total SCF gradient time            ...        1.553 sec

One electron gradient       ....       0.060 sec  (  3.9%)
RI-J Coulomb gradient       ....       0.258 sec  ( 16.6%)
XC gradient                 ....       1.069 sec  ( 68.8%)

Maximum memory used throughout the entire SCFGRAD-calculation: 26.1 MB

                            ***************************************
                            *     ORCA property calculations      *
                            ***************************************

                                    ---------------------
                                    Active property flags
                                    ---------------------
   (+) Dipole Moment
   (+) Polarizability


------------------------------------------------------------------------------
                       ORCA ELECTRIC PROPERTIES CALCULATION
------------------------------------------------------------------------------

Dipole Moment Calculation                       ... on
Quadrupole Moment Calculation                   ... off
Polarizability Calculation                      ... Analytic (CP-SCF)
GBWName                                         ... /Users/armando/tmp/pubchem_120000_raman.gbw
Electron density                                ... /Users/armando/tmp/pubchem_120000_raman.scfp
The origin for moment calculation is the CENTER OF MASS  = (-0.022244, -0.034340  0.168027)

-------------
DIPOLE MOMENT
-------------
                                X             Y             Z
Electronic contribution:      4.81378      -3.04099      -0.30329
Nuclear contribution   :     -3.79618       2.86386       0.22950
                        -----------------------------------------
Total Dipole Moment    :      1.01760      -0.17712      -0.07378
                        -----------------------------------------
Magnitude (a.u.)       :      1.03553
Magnitude (Debye)      :      2.63211



--------------------
Rotational spectrum 
--------------------
 
Rotational constants in cm-1:     0.056876     0.018168     0.013843 
Rotational constants in MHz :  1705.092147   544.660845   415.001638 

 Dipole components along the rotational axes: 
x,y,z [a.u.] :    -1.015402    -0.202502    -0.016482 
x,y,z [Debye]:    -2.580947    -0.514719    -0.041895 

 
Transforming and storing MO dipole integrals   ... done

                ... starting polarizability calculation

The origin for moment calculation is the CENTER OF MASS  = (-0.022244, -0.034340  0.168027)
Opening the Dipole integral file               ... (/Users/armando/tmp/pubchem_120000_raman.dmo.tmp) done
Reading Dipole-MO integrals                    ... done
Solving CP-SCF equations                       ... 

           ************************************************************
           *        Program running with 8 parallel MPI-processes     *
           *              working on a common directory               *
           ************************************************************

------------------------------------------------------------------------------
                           ORCA CP-SCF CALCULATION
------------------------------------------------------------------------------

Input orbitals are from        ... /Users/armando/tmp/pubchem_120000_raman.gbw
Input Perturbation             ... /Users/armando/tmp/pubchem_120000_raman.cpv.tmp
Wavefunction output            ... /Users/armando/tmp/pubchem_120000_raman.cpu.tmp
Perturbation mode              ... Real perturbation (singlet)
Solver                         ... POPLE
Max. number of iterations      ... 64
Convergence tolerance          ... 1.000e-04
Integral handling              ... Direct
DFT GridXC                     ... 1
Number of perturbations        ... 3
Number of operators            ... 1
Orbital ranges used for CP-SCF:
 Operator 0:  Orbitals   0... 46  to  47...226
Variables per perturbation     ... 8460
DFT calculation                         ... on
XC functional terms                     ... on
Exchange functional (SCF)               ... B88
Exchange functional (CP-SCF)            ... B88
   X-Alpha parameter    XAlpha (SCF)    ...  0.666667
   X-Alpha parameter    XAlpha (CP-SCF) ...  0.666667
   Becke's b parameter  XBeta (SCF)     ...  0.004200
   Becke's b parameter  XBeta (CP-SCF)  ...  0.004200
Correlation functional (SCF)            ... P86
Correlation functional (CP-SCF)         ... P86
 LDA part of GGA corr.  LDAOpt (SCF)    ... PW91-LDA
 LDA part of GGA corr.  LDAOpt (CP-SCF) ... PW91-LDA

CP-SCF GRID
-----------

General Integration Accuracy     IntAcc      ... 3.467
Radial Grid Type                 RadialGrid  ... OptM3 with GC (2021)
Angular Grid (max. ang.)         AngularGrid ... 1 (Lebedev-50)
Angular grid pruning method      GridPruning ... 4 (adaptive)
Weight generation scheme         WeightScheme... Becke
Basis function cutoff            BFCut       ... 1.0000e-11
Integration weight cutoff        WCut        ... 1.0000e-14
Angular grids for H and He will be reduced by one unit
Partially contracted basis set               ... off
Rotationally invariant grid construction     ... off

Total number of grid points                  ...    15809
Total number of batches                      ...      254
Average number of points per batch           ...       62
Average number of grid points per atom       ...      719

Recalculating density on grid  ... done
Calculating the xc-kernel      ... done
Memory available               ... 1015.5 MB
Memory needed per perturbation ...   2.7 MB
Perturbations treated per batch... 3
Number of batches              ... 1
     CP-SCF ITERATION   0:   5.4382e+01 (   0.2 sec   0/  3 done)
     CP-SCF ITERATION   1:   1.4735e+00 (   0.2 sec   0/  3 done)
     CP-SCF ITERATION   2:   5.5622e-01 (   0.2 sec   0/  3 done)
     CP-SCF ITERATION   3:   2.2470e-01 (   0.2 sec   0/  3 done)
     CP-SCF ITERATION   4:   5.3491e-02 (   0.2 sec   0/  3 done)
     CP-SCF ITERATION   5:   2.6914e-02 (   0.2 sec   0/  3 done)
     CP-SCF ITERATION   6:   8.1603e-03 (   0.2 sec   0/  3 done)
     CP-SCF ITERATION   7:   2.7373e-03 (   0.2 sec   0/  3 done)
     CP-SCF ITERATION   8:   8.2299e-04 (   0.2 sec   0/  3 done)
     CP-SCF ITERATION   9:   2.7185e-04 (   0.2 sec   1/  3 done)
     CP-SCF ITERATION  10:   7.9970e-05 (   0.1 sec   3/  3 done)
                    *** THE CP-SCF HAS CONVERGED ***
done
Reading CP-SCF coefficients                    ... done
Doing the polarizability tensor                ... done
Cleaning up                                    ... done

-------------------------
THE POLARIZABILITY TENSOR
-------------------------

The raw cartesian tensor (atomic units):
  179.39965      0.24382     -6.11997  
    0.24382    124.79075      2.45351  
   -6.11997      2.45351     59.35641  
diagonalized tensor: 
   58.95309    124.88262    179.71111  

    0.05079     -0.00027     -0.99871  
   -0.03738      0.99930     -0.00217  
    0.99801      0.03744      0.05074  

Isotropic polarizability : 121.18227


----------------------------------------------------------------------------
                           ORCA NUMERICAL FREQUENCIES
                              (8-process run)
----------------------------------------------------------------------------

Number of atoms                ... 22
Central differences            ... used
Number of displacements        ... 132
Numerical increment            ... 5.000e-03 bohr
IR-spectrum generation         ... on
Raman-spectrum generation      ... on
Polarizability calculation     ... 1
Surface Crossing Hessian       ... off

The output will be reduced. Please look at the following files:
SCF program output             ... >/Users/armando/tmp/pubchem_120000_raman.lastscf
Integral program output        ... >/Users/armando/tmp/pubchem_120000_raman.lastint
Gradient program output        ... >/Users/armando/tmp/pubchem_120000_raman.lastgrad
Dipole moment program output   ... >/Users/armando/tmp/pubchem_120000_raman.lastmom
AutoCI program output          ... >/Users/armando/tmp/pubchem_120000_raman.lastautoci

	<< Calculating on displaced geometry   7 (of 132) >>
	<< Calculating on displaced geometry   3 (of 132) >>
	<< Calculating on displaced geometry   4 (of 132) >>
	<< Calculating on displaced geometry   5 (of 132) >>
	<< Calculating on displaced geometry   2 (of 132) >>
	<< Calculating on displaced geometry   8 (of 132) >>
	<< Calculating on displaced geometry   6 (of 132) >>
	<< Calculating on displaced geometry   1 (of 132) >>
	<< Calculating on displaced geometry   9 (of 132) >>
	<< Calculating on displaced geometry  10 (of 132) >>
	<< Calculating on displaced geometry  11 (of 132) >>
	<< Calculating on displaced geometry  12 (of 132) >>
	<< Calculating on displaced geometry  13 (of 132) >>
	<< Calculating on displaced geometry  14 (of 132) >>
	<< Calculating on displaced geometry  15 (of 132) >>
	<< Calculating on displaced geometry  16 (of 132) >>
	<< Calculating on displaced geometry  17 (of 132) >>
	<< Calculating on displaced geometry  18 (of 132) >>
	<< Calculating on displaced geometry  19 (of 132) >>
	<< Calculating on displaced geometry  20 (of 132) >>
	<< Calculating on displaced geometry  21 (of 132) >>
	<< Calculating on displaced geometry  22 (of 132) >>
	<< Calculating on displaced geometry  23 (of 132) >>
	<< Calculating on displaced geometry  24 (of 132) >>
	<< Calculating on displaced geometry  25 (of 132) >>
	<< Calculating on displaced geometry  26 (of 132) >>
	<< Calculating on displaced geometry  27 (of 132) >>
	<< Calculating on displaced geometry  28 (of 132) >>
	<< Calculating on displaced geometry  29 (of 132) >>
	<< Calculating on displaced geometry  30 (of 132) >>
	<< Calculating on displaced geometry  31 (of 132) >>
	<< Calculating on displaced geometry  32 (of 132) >>
	<< Calculating on displaced geometry  33 (of 132) >>
	<< Calculating on displaced geometry  34 (of 132) >>
	<< Calculating on displaced geometry  35 (of 132) >>
	<< Calculating on displaced geometry  36 (of 132) >>
	<< Calculating on displaced geometry  37 (of 132) >>
	<< Calculating on displaced geometry  38 (of 132) >>
	<< Calculating on displaced geometry  39 (of 132) >>
	<< Calculating on displaced geometry  40 (of 132) >>
	<< Calculating on displaced geometry  41 (of 132) >>
	<< Calculating on displaced geometry  42 (of 132) >>
	<< Calculating on displaced geometry  43 (of 132) >>
	<< Calculating on displaced geometry  44 (of 132) >>
	<< Calculating on displaced geometry  45 (of 132) >>
	<< Calculating on displaced geometry  46 (of 132) >>
	<< Calculating on displaced geometry  47 (of 132) >>
	<< Calculating on displaced geometry  48 (of 132) >>
	<< Calculating on displaced geometry  49 (of 132) >>
	<< Calculating on displaced geometry  50 (of 132) >>
	<< Calculating on displaced geometry  51 (of 132) >>
	<< Calculating on displaced geometry  52 (of 132) >>
	<< Calculating on displaced geometry  53 (of 132) >>
	<< Calculating on displaced geometry  54 (of 132) >>
	<< Calculating on displaced geometry  55 (of 132) >>
	<< Calculating on displaced geometry  56 (of 132) >>
	<< Calculating on displaced geometry  57 (of 132) >>
	<< Calculating on displaced geometry  58 (of 132) >>
	<< Calculating on displaced geometry  59 (of 132) >>
	<< Calculating on displaced geometry  60 (of 132) >>
	<< Calculating on displaced geometry  61 (of 132) >>
	<< Calculating on displaced geometry  62 (of 132) >>
	<< Calculating on displaced geometry  63 (of 132) >>
	<< Calculating on displaced geometry  64 (of 132) >>
	<< Calculating on displaced geometry  65 (of 132) >>
	<< Calculating on displaced geometry  66 (of 132) >>
	<< Calculating on displaced geometry  67 (of 132) >>
	<< Calculating on displaced geometry  68 (of 132) >>
	<< Calculating on displaced geometry  69 (of 132) >>
	<< Calculating on displaced geometry  70 (of 132) >>
	<< Calculating on displaced geometry  71 (of 132) >>
	<< Calculating on displaced geometry  72 (of 132) >>
	<< Calculating on displaced geometry  73 (of 132) >>
	<< Calculating on displaced geometry  74 (of 132) >>
	<< Calculating on displaced geometry  75 (of 132) >>
	<< Calculating on displaced geometry  76 (of 132) >>
	<< Calculating on displaced geometry  77 (of 132) >>
	<< Calculating on displaced geometry  78 (of 132) >>
	<< Calculating on displaced geometry  79 (of 132) >>
	<< Calculating on displaced geometry  80 (of 132) >>
	<< Calculating on displaced geometry  81 (of 132) >>
	<< Calculating on displaced geometry  82 (of 132) >>
	<< Calculating on displaced geometry  83 (of 132) >>
	<< Calculating on displaced geometry  84 (of 132) >>
	<< Calculating on displaced geometry  85 (of 132) >>
	<< Calculating on displaced geometry  86 (of 132) >>
	<< Calculating on displaced geometry  87 (of 132) >>
	<< Calculating on displaced geometry  88 (of 132) >>
	<< Calculating on displaced geometry  89 (of 132) >>
	<< Calculating on displaced geometry  90 (of 132) >>
	<< Calculating on displaced geometry  91 (of 132) >>
	<< Calculating on displaced geometry  92 (of 132) >>
	<< Calculating on displaced geometry  93 (of 132) >>
	<< Calculating on displaced geometry  94 (of 132) >>
	<< Calculating on displaced geometry  95 (of 132) >>
	<< Calculating on displaced geometry  96 (of 132) >>
	<< Calculating on displaced geometry  97 (of 132) >>
	<< Calculating on displaced geometry  98 (of 132) >>
	<< Calculating on displaced geometry  99 (of 132) >>
	<< Calculating on displaced geometry 100 (of 132) >>
	<< Calculating on displaced geometry 101 (of 132) >>
	<< Calculating on displaced geometry 102 (of 132) >>
	<< Calculating on displaced geometry 103 (of 132) >>
	<< Calculating on displaced geometry 104 (of 132) >>
	<< Calculating on displaced geometry 105 (of 132) >>
	<< Calculating on displaced geometry 106 (of 132) >>
	<< Calculating on displaced geometry 107 (of 132) >>
	<< Calculating on displaced geometry 108 (of 132) >>
	<< Calculating on displaced geometry 109 (of 132) >>
	<< Calculating on displaced geometry 110 (of 132) >>
	<< Calculating on displaced geometry 111 (of 132) >>
	<< Calculating on displaced geometry 112 (of 132) >>
	<< Calculating on displaced geometry 113 (of 132) >>
	<< Calculating on displaced geometry 114 (of 132) >>
	<< Calculating on displaced geometry 115 (of 132) >>
	<< Calculating on displaced geometry 116 (of 132) >>
	<< Calculating on displaced geometry 117 (of 132) >>
	<< Calculating on displaced geometry 118 (of 132) >>
	<< Calculating on displaced geometry 119 (of 132) >>
	<< Calculating on displaced geometry 120 (of 132) >>
	<< Calculating on displaced geometry 121 (of 132) >>
	<< Calculating on displaced geometry 122 (of 132) >>
	<< Calculating on displaced geometry 123 (of 132) >>
	<< Calculating on displaced geometry 124 (of 132) >>
	<< Calculating on displaced geometry 125 (of 132) >>
	<< Calculating on displaced geometry 126 (of 132) >>
	<< Calculating on displaced geometry 127 (of 132) >>
	<< Calculating on displaced geometry 128 (of 132) >>
	<< Calculating on displaced geometry 129 (of 132) >>
	<< Calculating on displaced geometry 130 (of 132) >>
	<< Calculating on displaced geometry 131 (of 132) >>
	<< Calculating on displaced geometry 132 (of 132) >>

-----------------------
VIBRATIONAL FREQUENCIES
-----------------------

Scaling factor for frequencies =  1.000000000 (already applied!)

   0:         0.00 cm**-1
   1:         0.00 cm**-1
   2:         0.00 cm**-1
   3:         0.00 cm**-1
   4:         0.00 cm**-1
   5:         0.00 cm**-1
   6:      -185.24 cm**-1 ***imaginary mode***
   7:      -184.20 cm**-1 ***imaginary mode***
   8:      -170.85 cm**-1 ***imaginary mode***
   9:       -39.55 cm**-1 ***imaginary mode***
  10:       100.48 cm**-1
  11:       141.31 cm**-1
  12:       195.54 cm**-1
  13:       245.69 cm**-1
  14:       312.43 cm**-1
  15:       335.17 cm**-1
  16:       344.40 cm**-1
  17:       396.55 cm**-1
  18:       401.94 cm**-1
  19:       445.04 cm**-1
  20:       508.38 cm**-1
  21:       533.28 cm**-1
  22:       616.43 cm**-1
  23:       630.41 cm**-1
  24:       650.72 cm**-1
  25:       708.53 cm**-1
  26:       710.85 cm**-1
  27:       735.76 cm**-1
  28:       779.50 cm**-1
  29:       779.88 cm**-1
  30:       814.75 cm**-1
  31:       851.25 cm**-1
  32:       914.79 cm**-1
  33:       969.71 cm**-1
  34:       974.46 cm**-1
  35:      1002.92 cm**-1
  36:      1022.95 cm**-1
  37:      1067.75 cm**-1
  38:      1088.10 cm**-1
  39:      1117.90 cm**-1
  40:      1138.97 cm**-1
  41:      1195.47 cm**-1
  42:      1208.95 cm**-1
  43:      1268.15 cm**-1
  44:      1311.80 cm**-1
  45:      1325.21 cm**-1
  46:      1378.08 cm**-1
  47:      1384.98 cm**-1
  48:      1398.06 cm**-1
[...]
     15      -0.000008   0.000003  -0.004285  -0.000233   0.000575   0.000052
     16       0.000001  -0.000032  -0.003022   0.000374   0.001160  -0.000136
     17      -0.000038  -0.000004   0.000102   0.000032   0.000018  -0.000012
     18      -0.000001   0.000049  -0.000289   0.002025   0.002638  -0.000103
     19       0.000004  -0.000205  -0.000537   0.001594  -0.001632  -0.000821
     20       0.000036  -0.000008  -0.000001  -0.000039  -0.000199  -0.000018
     21       0.000010  -0.000045   0.003557  -0.000133   0.000565  -0.001908
     22      -0.000014  -0.000212  -0.000037   0.000695   0.001341  -0.000523
     23       0.000057  -0.000005  -0.000189   0.000028   0.000077   0.000105
     24      -0.000035  -0.000304  -0.000654   0.021878  -0.000746  -0.000042
     25       0.000080   0.001349   0.002261  -0.083802  -0.000082   0.000210
     26      -0.000178   0.000072   0.000117  -0.004376   0.000025   0.000007
     27      -0.000012   0.000013  -0.021276  -0.000587  -0.002547   0.000237
     28       0.000033   0.000038   0.084649   0.002484  -0.000324  -0.000316
     29      -0.000026  -0.000003   0.004402   0.000133   0.000112  -0.000040
     30      -0.000008   0.000069   0.000005   0.000207   0.000113   0.000057
     31       0.000003   0.000003   0.000121  -0.000125  -0.000027  -0.000045
     32       0.000037   0.000005  -0.000006   0.000037  -0.000021  -0.000007
     33      -0.000015  -0.001564   0.000329   0.000344  -0.006236   0.000902
     34      -0.000004  -0.001027   0.000173  -0.000595  -0.001754   0.000235
     35       0.000506   0.000043   0.000002  -0.000051   0.000261  -0.000025
     36       0.004516  -0.091877  -0.000006  -0.001060   0.000127  -0.000104
     37      -0.003416  -0.015980   0.000020  -0.000659   0.000281  -0.000091
     38       0.091898   0.004033  -0.000046   0.000096   0.000024  -0.000011
     39       0.000193   0.005117   0.006609  -0.238401  -0.000134   0.000612
     40      -0.000754  -0.014786  -0.027227   0.965386  -0.000678  -0.000241
     41       0.001079  -0.000825  -0.001363   0.049980  -0.000040  -0.000017
     42       0.000089  -0.000012   0.261137   0.007385   0.002632   0.000814
     43      -0.000336  -0.000114  -0.959525  -0.026854  -0.004793   0.002810
     44      -0.000033  -0.000007  -0.050927  -0.001405  -0.000264   0.000127
     45       0.000159  -0.000228   0.000453  -0.000122   0.000004  -0.000123
     46       0.000073  -0.000049  -0.000091   0.000357   0.000053   0.000030
     47      -0.000270   0.000355  -0.000484   0.000242   0.000093   0.000155
     48      -0.000105  -0.000347   0.000603  -0.000539   0.000058  -0.000121
     49      -0.000049  -0.000052   0.000100   0.000040   0.000147   0.000035
     50      -0.000152  -0.000440   0.000533  -0.000802   0.000030  -0.000091
     51       0.000004   0.000081  -0.003820  -0.000100   0.070300   0.255161
     52       0.000016   0.001239  -0.001890  -0.000962  -0.325870  -0.910770
     53      -0.000121   0.000055   0.000121  -0.000032  -0.020041  -0.059267
     54       0.000155   0.004738   0.005194  -0.000156  -0.914657   0.301339
     55      -0.000004  -0.000119  -0.002736   0.000285   0.213293  -0.064568
     56       0.000122  -0.000207  -0.000325   0.000037   0.049733  -0.015703
     57       0.247185   0.092900  -0.000179   0.005044   0.000872  -0.000083
     58       0.349542   0.147002  -0.000297   0.005560   0.002534  -0.000594
     59      -0.561930  -0.249566   0.000469  -0.009115  -0.001730   0.000319
     60      -0.289577   0.107327   0.000002   0.005450   0.000947  -0.000096
     61      -0.309336   0.124193  -0.000048   0.004404   0.002319  -0.000541
     62      -0.559003   0.240360  -0.000065   0.008112   0.001637  -0.000314
     63      -0.011295   0.898412  -0.000470   0.010086   0.003525  -0.000311
     64       0.000313  -0.071525   0.000152   0.000472  -0.001993   0.000367
     65       0.017851  -0.038878   0.000019  -0.000426  -0.000238   0.000031


-----------
IR SPECTRUM
-----------

 Mode   freq       eps      Int      T**2         TX        TY        TZ
       cm**-1   L/(mol*cm) km/mol    a.u.
----------------------------------------------------------------------------
 10:    100.48   0.003561   17.99  0.011059  (-0.004001  0.006296 -0.104896)
 11:    141.31   0.000261    1.32  0.000577  ( 0.002720 -0.001538  0.023807)
 12:    195.54   0.000262    1.32  0.000418  (-0.014242  0.014647 -0.000518)
 13:    245.69   0.001913    9.67  0.002430  (-0.002339  0.003261 -0.049128)
 14:    312.43   0.000506    2.55  0.000505  ( 0.000169 -0.000441  0.022466)
 15:    335.17   0.001589    8.03  0.001479  ( 0.018087 -0.033874 -0.002143)
 16:    344.40   0.000315    1.59  0.000286  ( 0.009553  0.013938 -0.000412)
 17:    396.55   0.000494    2.50  0.000389  (-0.019662  0.000219  0.001386)
 18:    401.94   0.000492    2.49  0.000382  ( 0.001820 -0.002349  0.019322)
 19:    445.04   0.000547    2.76  0.000384  ( 0.015855  0.011494 -0.000247)
 20:    508.38   0.003411   17.24  0.002094  (-0.035320  0.028972  0.002574)
 21:    533.28   0.000048    0.24  0.000028  (-0.005067  0.000091 -0.001488)
 22:    616.43   0.005281   26.69  0.002673  ( 0.001496 -0.000092  0.051682)
 23:    630.41   0.004465   22.56  0.002210  ( 0.043270 -0.018383 -0.000130)
 24:    650.72   0.000579    2.92  0.000278  (-0.001456  0.000691 -0.016581)
 25:    708.53   0.000050    0.25  0.000022  (-0.000566  0.000412 -0.004641)
 26:    710.85   0.000340    1.72  0.000149  (-0.007925  0.009230  0.001128)
 27:    735.76   0.000091    0.46  0.000039  ( 0.004517 -0.004248 -0.000329)
 28:    779.50   0.000414    2.09  0.000166  (-0.003890 -0.010830 -0.005780)
 29:    779.88   0.002314   11.69  0.000926  ( 0.001260 -0.003295  0.030221)
 30:    814.75   0.003787   19.14  0.001451  (-0.002153  0.000739 -0.038019)
 31:    851.25   0.003205   16.20  0.001175  (-0.028734 -0.018676  0.000697)
 32:    914.79   0.009095   45.96  0.003103  (-0.053667  0.014580  0.003122)
 33:    969.71   0.012588   63.62  0.004051  ( 0.000628  0.063592  0.002582)
 34:    974.46   0.000768    3.88  0.000246  (-0.001873  0.001186  0.015522)
 35:   1002.92   0.001084    5.48  0.000337  ( 0.018031 -0.003064 -0.001707)
 36:   1022.95   0.000118    0.60  0.000036  (-0.005913  0.000967  0.000386)
 37:   1067.75   0.019639   99.25  0.005740  ( 0.075303  0.006757 -0.004840)
 38:   1088.10   0.001430    7.23  0.000410  ( 0.003179 -0.000897  0.019981)
 39:   1117.90   0.005595   28.27  0.001562  (-0.026394  0.029281  0.002794)
 40:   1138.97   0.000008    0.04  0.000002  (-0.000417  0.001389 -0.000091)
 41:   1195.47   0.002743   13.86  0.000716  ( 0.017786  0.019984 -0.000600)
 42:   1208.95   0.017344   87.65  0.004477  ( 0.049825  0.044651 -0.000853)
 43:   1268.15   0.028114  142.08  0.006918  ( 0.081649 -0.015134 -0.004755)
 44:   1311.80   0.060486  305.67  0.014389  (-0.106555  0.054624  0.007156)
 45:   1325.21   0.041187  208.14  0.009699  (-0.096958 -0.016654  0.004540)
 46:   1378.08   0.000718    3.63  0.000163  (-0.003152 -0.012348  0.000530)
 47:   1384.98   0.002183   11.03  0.000492  ( 0.020684  0.007948 -0.000878)
 48:   1398.06   0.002072   10.47  0.000462  ( 0.002431 -0.000202  0.021367)
 49:   1412.12   0.005097   25.76  0.001126  (-0.031708 -0.010984  0.000641)
 50:   1451.42   0.013534   68.39  0.002910  ( 0.035018 -0.040905 -0.003221)
 51:   1470.25   0.006891   34.82  0.001463  ( 0.034435  0.016618 -0.000854)
 52:   1521.28   0.057272  289.43  0.011748  (-0.106637 -0.018834  0.004715)
 53:   1551.70   0.046502  235.00  0.009352  (-0.048063 -0.083913 -0.000772)
 54:   1642.42   0.021103  106.64  0.004010  ( 0.034031 -0.053264 -0.003790)
 55:   1690.05   0.012276   62.04  0.002267  ( 0.042450  0.021516 -0.001346)
 56:   1719.67   0.054034  273.07  0.009805  ( 0.089219  0.042857 -0.002948)
 57:   3004.16   0.035916  181.51  0.003731  ( 0.060083  0.009735 -0.005115)
 58:   3033.91   0.000989    5.00  0.000102  ( 0.003142 -0.009574 -0.000438)
 59:   3056.58   0.009606   48.55  0.000981  (-0.003784  0.001024 -0.031071)
 60:   3119.05   0.000927    4.69  0.000093  ( 0.000325 -0.000789  0.009594)
 61:   3165.37   0.001074    5.43  0.000106  (-0.010144  0.001631  0.000530)
 62:   3200.83   0.000885    4.47  0.000086  (-0.002102  0.009038  0.000411)
 63:   3229.74   0.000279    1.41  0.000027  (-0.003640 -0.003709  0.000027)
 64:   3443.07   0.023674  119.64  0.002146  (-0.045773  0.006729  0.002295)
 65:   3697.44   0.012525   63.30  0.001057  ( 0.012323 -0.030024 -0.001966)

* The epsilon (eps) is given for a Dirac delta lineshape.
** The dipole moment derivative (T) already includes vibrational overlap.

--------------
RAMAN SPECTRUM  
--------------

 Mode    freq (cm**-1)   Activity   Depolarization
-------------------------------------------------------------------
  10:       100.48      0.305536      0.749942
  11:       141.31      1.135610      0.749964
  12:       195.54      1.830463      0.567180
  13:       245.69      1.434998      0.749983
  14:       312.43      2.771345      0.749993
  15:       335.17      3.181150      0.360505
  16:       344.40      3.247666      0.145113
  17:       396.55     12.985387      0.548750
  18:       401.94      0.376595      0.745699
  19:       445.04      4.853218      0.409516
  20:       508.38      4.879807      0.728090
  21:       533.28      0.576586      0.749713
  22:       616.43      0.153684      0.671288
  23:       630.41     12.313609      0.301115
  24:       650.72      0.093745      0.749139
  25:       708.53      1.008734      0.683206
  26:       710.85     20.485997      0.094253
  27:       735.76      8.537652      0.308668
  28:       779.50     11.762880      0.367555
  29:       779.88      2.825130      0.688299
  30:       814.75      1.596096      0.749331
  31:       851.25      7.430498      0.142334
  32:       914.79      7.218571      0.169163
  33:       969.71      2.400223      0.675056
  34:       974.46      0.187675      0.747306
  35:      1002.92      9.629232      0.212019
  36:      1022.95      1.552989      0.166291
  37:      1067.75      2.640233      0.430406
  38:      1088.10      0.637731      0.748804
  39:      1117.90      2.408334      0.150050
  40:      1138.97      9.921421      0.749844
  41:      1195.47      4.963354      0.594348
  42:      1208.95      6.839957      0.655472
  43:      1268.15      9.082131      0.393337
  44:      1311.80      5.816762      0.408632
  45:      1325.21     16.433796      0.742990
  46:      1378.08     24.980061      0.601709
  47:      1384.98      9.527121      0.624945
  48:      1398.06     22.564284      0.749779
  49:      1412.12     68.102251      0.322604
  50:      1451.42     17.769413      0.326758
  51:      1470.25     46.459981      0.460870
  52:      1521.28     44.242194      0.285319
  53:      1551.70      6.417064      0.392776
  54:      1642.42      1.078662      0.697627
  55:      1690.05      6.710528      0.458544
  56:      1719.67     96.317853      0.216666
  57:      3004.16    458.365981      0.148824
  58:      3033.91    196.254293      0.028599
  59:      3056.58    284.219425      0.747866
  60:      3119.05     56.427748      0.749821
  61:      3165.37     97.928510      0.634280
  62:      3200.83    115.684641      0.312819
  63:      3229.74     63.972066      0.302944
  64:      3443.07    136.155895      0.124689
  65:      3697.44    122.783465      0.374938

The first frequency considered to be a vibration is 10
The total number of vibrations considered is 56


--------------------------
THERMOCHEMISTRY AT 298.15K
--------------------------

Temperature         ... 298.15 K
Pressure            ... 1.00 atm
Total Mass          ... 179.18 AMU

Throughout the following assumptions are being made:
  (1) The electronic state is orbitally nondegenerate
  (2) There are no thermally accessible electronically excited states
  (3) Hindered rotations indicated by low frequency modes are not
      treated as such but are treated as vibrations and this may
      cause some error
  (4) All equations used are the standard statistical mechanics
      equations for an ideal gas
  (5) All vibrations are strictly harmonic

freq.     100.48  E(vib)   ...       0.46 
freq.     141.31  E(vib)   ...       0.41 
freq.     195.54  E(vib)   ...       0.36 
freq.     245.69  E(vib)   ...       0.31 
freq.     312.43  E(vib)   ...       0.25 
freq.     335.17  E(vib)   ...       0.24 
freq.     344.40  E(vib)   ...       0.23 
freq.     396.55  E(vib)   ...       0.20 
freq.     401.94  E(vib)   ...       0.19 
freq.     445.04  E(vib)   ...       0.17 
freq.     508.38  E(vib)   ...       0.14 
freq.     533.28  E(vib)   ...       0.13 
freq.     616.43  E(vib)   ...       0.09 
freq.     630.41  E(vib)   ...       0.09 
freq.     650.72  E(vib)   ...       0.08 
freq.     708.53  E(vib)   ...       0.07 
freq.     710.85  E(vib)   ...       0.07 
freq.     735.76  E(vib)   ...       0.06 
freq.     779.50  E(vib)   ...       0.05 
freq.     779.88  E(vib)   ...       0.05 
freq.     814.75  E(vib)   ...       0.05 
freq.     851.25  E(vib)   ...       0.04 
freq.     914.79  E(vib)   ...       0.03 
freq.     969.71  E(vib)   ...       0.03 
freq.     974.46  E(vib)   ...       0.03 
freq.    1002.92  E(vib)   ...       0.02 
freq.    1022.95  E(vib)   ...       0.02 
freq.    1067.75  E(vib)   ...       0.02 
freq.    1088.10  E(vib)   ...       0.02 
freq.    1117.90  E(vib)   ...       0.01 
freq.    1138.97  E(vib)   ...       0.01 
freq.    1195.47  E(vib)   ...       0.01 
freq.    1208.95  E(vib)   ...       0.01 
freq.    1268.15  E(vib)   ...       0.01 
freq.    1311.80  E(vib)   ...       0.01 
freq.    1325.21  E(vib)   ...       0.01 
freq.    1378.08  E(vib)   ...       0.01 
freq.    1384.98  E(vib)   ...       0.00 
freq.    1398.06  E(vib)   ...       0.00 
freq.    1412.12  E(vib)   ...       0.00 
freq.    1451.42  E(vib)   ...       0.00 
freq.    1470.25  E(vib)   ...       0.00 
freq.    1521.28  E(vib)   ...       0.00 
freq.    1551.70  E(vib)   ...       0.00 
freq.    1642.42  E(vib)   ...       0.00 
freq.    1690.05  E(vib)   ...       0.00 
freq.    1719.67  E(vib)   ...       0.00 
freq.    3004.16  E(vib)   ...       0.00 
freq.    3033.91  E(vib)   ...       0.00 
freq.    3056.58  E(vib)   ...       0.00 
freq.    3119.05  E(vib)   ...       0.00 
freq.    3165.37  E(vib)   ...       0.00 
freq.    3200.83  E(vib)   ...       0.00 
freq.    3229.74  E(vib)   ...       0.00 
freq.    3443.07  E(vib)   ...       0.00 
freq.    3697.44  E(vib)   ...       0.00 

------------
INNER ENERGY
------------

The inner energy is: U= E(el) + E(ZPE) + E(vib) + E(rot) + E(trans)
    E(el)   - is the total energy from the electronic structure calculation
              = E(kin-el) + E(nuc-el) + E(el-el) + E(nuc-nuc)
    E(ZPE)  - the the zero temperature vibrational energy from the frequency calculation
    E(vib)  - the the finite temperature correction to E(ZPE) due to population
              of excited vibrational states
    E(rot)  - is the rotational thermal energy
    E(trans)- is the translational thermal energy

Summary of contributions to the inner energy U:
Electronic energy                ...   -628.35339719 Eh
Zero point energy                ...      0.16497492 Eh     103.52 kcal/mol
Thermal vibrational correction   ...      0.00639072 Eh       4.01 kcal/mol
Thermal rotational correction    ...      0.00141627 Eh       0.89 kcal/mol
Thermal translational correction ...      0.00141627 Eh       0.89 kcal/mol
-----------------------------------------------------------------------
Total thermal energy                   -628.17919902 Eh


Summary of corrections to the electronic energy:
(perhaps to be used in another calculation)
Total thermal correction                  0.00922326 Eh       5.79 kcal/mol
Non-thermal (ZPE) correction              0.16497492 Eh     103.52 kcal/mol
-----------------------------------------------------------------------
Total correction                          0.17419818 Eh     109.31 kcal/mol


--------
ENTHALPY
--------

The enthalpy is H = U + kB*T
                kB is Boltzmann's constant
Total free energy                 ...   -628.17919902 Eh 
Thermal Enthalpy correction       ...      0.00094421 Eh       0.59 kcal/mol
-----------------------------------------------------------------------
Total Enthalpy                    ...   -628.17825481 Eh


Note: Only C1 symmetry has been detected, increase convergence thresholds 
      if your molecule has a higher symmetry. Symmetry factor of 1.0 is   
      used for the rotational entropy correction. 
 

Note: Rotational entropy computed according to Herzberg 
Infrared and Raman Spectra, Chapter V,1, Van Nostrand Reinhold, 1945 
Point Group:  C1, Symmetry Number:   1  
Rotational constants in cm-1:     0.056876     0.018168     0.013843 

Vibrational entropy computed according to the QRRHO of S. Grimme
Chem.Eur.J. 2012 18 9955


-------
ENTROPY
-------

The entropy contributions are T*S = T*(S(el)+S(vib)+S(rot)+S(trans))
     S(el)   - electronic entropy
     S(vib)  - vibrational entropy
     S(rot)  - rotational entropy
     S(trans)- translational entropy
The entropies will be listed as multiplied by the temperature to get
units of energy

Electronic entropy                ...      0.00000000 Eh      0.00 kcal/mol
Vibrational entropy               ...      0.01022067 Eh      6.41 kcal/mol
Rotational entropy                ...      0.01477696 Eh      9.27 kcal/mol
Translational entropy             ...      0.01969720 Eh     12.36 kcal/mol
-----------------------------------------------------------------------
Final entropy term                ...      0.04469484 Eh     28.05 kcal/mol

In case the symmetry of your molecule has not been determined correctly
or in case you have a reason to use a different symmetry number we print 
out the resulting rotational entropy values for sn=1,12 :
 --------------------------------------------------------
|  sn= 1 | S(rot)=       0.01477696 Eh      9.27 kcal/mol|
|  sn= 2 | S(rot)=       0.01412250 Eh      8.86 kcal/mol|
|  sn= 3 | S(rot)=       0.01373967 Eh      8.62 kcal/mol|
|  sn= 4 | S(rot)=       0.01346805 Eh      8.45 kcal/mol|
|  sn= 5 | S(rot)=       0.01325736 Eh      8.32 kcal/mol|
|  sn= 6 | S(rot)=       0.01308522 Eh      8.21 kcal/mol|
|  sn= 7 | S(rot)=       0.01293967 Eh      8.12 kcal/mol|
|  sn= 8 | S(rot)=       0.01281359 Eh      8.04 kcal/mol|
|  sn= 9 | S(rot)=       0.01270238 Eh      7.97 kcal/mol|
|  sn=10 | S(rot)=       0.01260290 Eh      7.91 kcal/mol|
|  sn=11 | S(rot)=       0.01251291 Eh      7.85 kcal/mol|
|  sn=12 | S(rot)=       0.01243076 Eh      7.80 kcal/mol|
 --------------------------------------------------------


-------------------
GIBBS FREE ENERGY
-------------------

The Gibbs free energy is G = H - T*S

Total enthalpy                    ...   -628.17825481 Eh 
Total entropy correction          ...     -0.04469484 Eh    -28.05 kcal/mol
-----------------------------------------------------------------------
Final Gibbs free energy         ...   -628.22294965 Eh

For completeness - the Gibbs free energy minus the electronic energy
G-E(el)                           ...      0.13044755 Eh     81.86 kcal/mol



Timings for individual modules:

Sum of individual times         ...      658.142 sec (=  10.969 min)
GTO integral calculation        ...        0.802 sec (=   0.013 min)   0.1 %
SCF iterations                  ...        3.147 sec (=   0.052 min)   0.5 %
Solution of CP-SCF eqns.        ...        2.251 sec (=   0.038 min)   0.3 %
SCF Gradient evaluation         ...        3.445 sec (=   0.057 min)   0.5 %
Numerical frequency calculation ...      648.497 sec (=  10.808 min)  98.5 %
                             ****ORCA TERMINATED NORMALLY****
TOTAL RUN TIME: 0 days 0 hours 10 minutes 55 seconds 146 msec
