
                                 *****************
                                 * O   R   C   A *
                                 *****************

                                            #,                                       
                                            ###                                      
                                            ####                                     
                                            #####                                    
                                            ######                                   
                                           ########,                                 
                                     ,,################,,,,,                         
                               ,,#################################,,                 
                          ,,##########################################,,             
                       ,#########################################, ''#####,          
                    ,#############################################,,   '####,        
                  ,##################################################,,,,####,       
                ,###########''''           ''''###############################       
              ,#####''   ,,,,##########,,,,          '''####'''          '####       
            ,##' ,,,,###########################,,,                        '##       
           ' ,,###''''                  '''############,,,                           
         ,,##''                                '''############,,,,        ,,,,,,###''
      ,#''                                            '''#######################'''  
     '                                                          ''''####''''         
             ,#######,   #######,   ,#######,      ##                                
            ,#'     '#,  ##    ##  ,#'     '#,    #''#        ######   ,####,        
            ##       ##  ##   ,#'  ##            #'  '#       #        #'  '#        
            ##       ##  #######   ##           ,######,      #####,   #    #        
            '#,     ,#'  ##    ##  '#,     ,#' ,#      #,         ##   #,  ,#        
             '#######'   ##     ##  '#######'  #'      '#     #####' # '####'        



                  #######################################################
                  #                        -***-                        #
                  #          Department of theory and spectroscopy      #
                  #    Directorship and core code : Frank Neese         #
                  #        Max Planck Institute fuer Kohlenforschung    #
                  #                Kaiser Wilhelm Platz 1               #
                  #                 D-45470 Muelheim/Ruhr               #
                  #                      Germany                        #
                  #                                                     #
                  #                  All rights reserved                #
                  #                        -***-                        #
                  #######################################################


                         Program Version 5.0.3 -  RELEASE  -


 With contributions from (in alphabetic order):
   Daniel Aravena         : Magnetic Suceptibility
   Michael Atanasov       : Ab Initio Ligand Field Theory (pilot matlab implementation)
   Alexander A. Auer      : GIAO ZORA, VPT2 properties, NMR spectrum
   Ute Becker             : Parallelization
   Giovanni Bistoni       : ED, misc. LED, open-shell LED, HFLD
   Martin Brehm           : Molecular dynamics
   Dmytro Bykov           : SCF Hessian
   Vijay G. Chilkuri      : MRCI spin determinant printing, contributions to CSF-ICE
   Dipayan Datta          : RHF DLPNO-CCSD density
   Achintya Kumar Dutta   : EOM-CC, STEOM-CC
   Dmitry Ganyushin       : Spin-Orbit,Spin-Spin,Magnetic field MRCI
   Miquel Garcia          : C-PCM and meta-GGA Hessian, CC/C-PCM, Gaussian charge scheme
   Yang Guo               : DLPNO-NEVPT2, F12-NEVPT2, CIM, IAO-localization
   Andreas Hansen         : Spin unrestricted coupled pair/coupled cluster methods
   Benjamin Helmich-Paris : MC-RPA, TRAH-SCF, COSX integrals
   Lee Huntington         : MR-EOM, pCC
   Robert Izsak           : Overlap fitted RIJCOSX, COSX-SCS-MP3, EOM
   Marcus Kettner         : VPT2
   Christian Kollmar      : KDIIS, OOCD, Brueckner-CCSD(T), CCSD density, CASPT2, CASPT2-K
   Simone Kossmann        : Meta GGA functionals, TD-DFT gradient, OOMP2, MP2 Hessian
   Martin Krupicka        : Initial AUTO-CI
   Lucas Lang             : DCDCAS
   Marvin Lechner         : AUTO-CI (C++ implementation), FIC-MRCC
   Dagmar Lenk            : GEPOL surface, SMD
   Dimitrios Liakos       : Extrapolation schemes; Compound Job, initial MDCI parallelization
   Dimitrios Manganas     : Further ROCIS development; embedding schemes
   Dimitrios Pantazis     : SARC Basis sets
   Anastasios Papadopoulos: AUTO-CI, single reference methods and gradients
   Taras Petrenko         : DFT Hessian,TD-DFT gradient, ASA, ECA, R-Raman, ABS, FL, XAS/XES, NRVS
   Peter Pinski           : DLPNO-MP2, DLPNO-MP2 Gradient
   Christoph Reimann      : Effective Core Potentials
   Marius Retegan         : Local ZFS, SOC
   Christoph Riplinger    : Optimizer, TS searches, QM/MM, DLPNO-CCSD(T), (RO)-DLPNO pert. Triples
   Tobias Risthaus        : Range-separated hybrids, TD-DFT gradient, RPA, STAB
   Michael Roemelt        : Original ROCIS implementation
   Masaaki Saitow         : Open-shell DLPNO-CCSD energy and density
   Barbara Sandhoefer     : DKH picture change effects
   Avijit Sen             : IP-ROCIS
   Kantharuban Sivalingam : CASSCF convergence, NEVPT2, FIC-MRCI
   Bernardo de Souza      : ESD, SOC TD-DFT
   Georgi Stoychev        : AutoAux, RI-MP2 NMR, DLPNO-MP2 response
   Willem Van den Heuvel  : Paramagnetic NMR
   Boris Wezisla          : Elementary symmetry handling
   Frank Wennmohs         : Technical directorship


 We gratefully acknowledge several colleagues who have allowed us to
 interface, adapt or use parts of their codes:
   Stefan Grimme, W. Hujo, H. Kruse, P. Pracht,  : VdW corrections, initial TS optimization,
                  C. Bannwarth, S. Ehlert          DFT functionals, gCP, sTDA/sTD-DF
   Ed Valeev, F. Pavosevic, A. Kumar             : LibInt (2-el integral package), F12 methods
   Garnet Chan, S. Sharma, J. Yang, R. Olivares  : DMRG
   Ulf Ekstrom                                   : XCFun DFT Library
   Mihaly Kallay                                 : mrcc  (arbitrary order and MRCC methods)
   Jiri Pittner, Ondrej Demel                    : Mk-CCSD
   Frank Weinhold                                : gennbo (NPA and NBO analysis)
   Christopher J. Cramer and Donald G. Truhlar   : smd solvation model
   Lars Goerigk                                  : TD-DFT with DH, B97 family of functionals
   V. Asgeirsson, H. Jonsson                     : NEB implementation
   FAccTs GmbH                                   : IRC, NEB, NEB-TS, DLPNO-Multilevel, CI-OPT
                                                   MM, QMMM, 2- and 3-layer-ONIOM, Crystal-QMMM,
                                                   LR-CPCM, SF, NACMEs, symmetry and pop. for TD-DFT,
                                                   nearIR, NL-DFT gradient (VV10), updates on ESD,
                                                   ML-optimized integration grids
   S Lehtola, MJT Oliveira, MAL Marques          : LibXC Library
   Liviu Ungur et al                             : ANISO software


 Your calculation uses the libint2 library for the computation of 2-el integrals
 For citations please refer to: http://libint.valeyev.net

 Your ORCA version has been built with support for libXC version: 5.1.0
 For citations please refer to: https://tddft.org/programs/libxc/

 This ORCA versions uses:
   CBLAS   interface :  Fast vector & matrix operations
   LAPACKE interface :  Fast linear algebra routines
   SCALAPACK package :  Parallel linear algebra routines
   Shared memory     :  Shared parallel matrices


================================================================================

----- Orbital basis set information -----
Your calculation utilizes the basis: def2-SVP
   F. Weigend and R. Ahlrichs, Phys. Chem. Chem. Phys. 7, 3297 (2005).

----- AuxJ basis set information -----
Your calculation utilizes the auxiliary basis: def2/J
   F. Weigend, Phys. Chem. Chem. Phys. 8, 1057 (2006).

================================================================================
                                        WARNINGS
                       Please study these warnings very carefully!
================================================================================


INFO   : the flag for use of the SHARK integral package has been found!

================================================================================
                                       INPUT FILE
================================================================================
NAME = /Users/armando/tmp/pubchem_120000_freq.inp
|  1> %pal nprocs 8
|  2> end
|  3> !b3lyp/g freq
|  4> *xyz 0 1
|  5> O      2.385344    1.481301    0.032546
|  6> O      2.930579   -0.755101   -0.087087
|  7> O     -3.436429   -0.298427    0.248922
|  8> N     -1.683792   -2.236561    0.093117
|  9> C      1.235687    0.724016    0.058114
| 10> C      1.580614   -0.635378   -0.013725
| 11> C     -1.099383    0.124650    0.151456
| 12> C     -0.737204   -1.266185    0.080267
| 13> C     -0.071975    1.118833    0.139302
| 14> C      0.638647   -1.636380   -0.005077
| 15> C      3.467217    0.572003   -0.071105
| 16> C     -2.513779    0.521401    0.233217
| 17> C     -2.865172    2.001474    0.298667
| 18> H     -0.317599    2.178226    0.193093
| 19> H      0.930921   -2.686251   -0.060971
| 20> H      4.025908    0.748115   -1.008883
| 21> H      4.141162    0.680348    0.798194
| 22> H     -1.418035   -3.207971    0.029782
| 23> H     -2.656699   -1.933927    0.148605
| 24> H     -2.495715    2.542966   -0.586612
| 25> H     -2.424875    2.482375    1.186770
| 26> H     -3.957721    2.090573    0.346009
| 27> *
| 28> 
| 29>                          ****END OF INPUT****
================================================================================

                       ****************************
                       * Single Point Calculation *
                       ****************************

---------------------------------
CARTESIAN COORDINATES (ANGSTROEM)
---------------------------------
  O      2.385344    1.481301    0.032546
  O      2.930579   -0.755101   -0.087087
  O     -3.436429   -0.298427    0.248922
  N     -1.683792   -2.236561    0.093117
  C      1.235687    0.724016    0.058114
  C      1.580614   -0.635378   -0.013725
  C     -1.099383    0.124650    0.151456
  C     -0.737204   -1.266185    0.080267
  C     -0.071975    1.118833    0.139302
  C      0.638647   -1.636380   -0.005077
  C      3.467217    0.572003   -0.071105
  C     -2.513779    0.521401    0.233217
  C     -2.865172    2.001474    0.298667
  H     -0.317599    2.178226    0.193093
  H      0.930921   -2.686251   -0.060971
  H      4.025908    0.748115   -1.008883
  H      4.141162    0.680348    0.798194
  H     -1.418035   -3.207971    0.029782
  H     -2.656699   -1.933927    0.148605
  H     -2.495715    2.542966   -0.586612
  H     -2.424875    2.482375    1.186770
  H     -3.957721    2.090573    0.346009

----------------------------
CARTESIAN COORDINATES (A.U.)
----------------------------
  NO LB      ZA    FRAG     MASS         X           Y           Z
   0 O     8.0000    0    15.999    4.507647    2.799253    0.061503
   1 O     8.0000    0    15.999    5.537992   -1.426934   -0.164571
   2 O     8.0000    0    15.999   -6.493910   -0.563945    0.470394
   3 N     7.0000    0    14.007   -3.181906   -4.226488    0.175966
   4 C     6.0000    0    12.011    2.335110    1.368192    0.109820
   5 C     6.0000    0    12.011    2.986928   -1.200690   -0.025936
   6 C     6.0000    0    12.011   -2.077533    0.235554    0.286210
   7 C     6.0000    0    12.011   -1.393114   -2.392743    0.151683
   8 C     6.0000    0    12.011   -0.136013    2.114288    0.263243
   9 C     6.0000    0    12.011    1.206868   -3.092310   -0.009594
  10 C     6.0000    0    12.011    6.552091    1.080929   -0.134369
  11 C     6.0000    0    12.011   -4.750354    0.985305    0.440716
  12 C     6.0000    0    12.011   -5.414390    3.782238    0.564399
  13 H     1.0000    0     1.008   -0.600175    4.116251    0.364893
  14 H     1.0000    0     1.008    1.759186   -5.076279   -0.115218
  15 H     1.0000    0     1.008    7.607864    1.413732   -1.906513
  16 H     1.0000    0     1.008    7.825662    1.285671    1.508368
  17 H     1.0000    0     1.008   -2.679698   -6.062187    0.056280
  18 H     1.0000    0     1.008   -5.020434   -3.654592    0.280823
  19 H     1.0000    0     1.008   -4.716218    4.805509   -1.108536
  20 H     1.0000    0     1.008   -4.582350    4.691009    2.242670
  21 H     1.0000    0     1.008   -7.479009    3.950610    0.653862

--------------------------------
INTERNAL COORDINATES (ANGSTROEM)
--------------------------------
 O      0   0   0     0.000000000000     0.00000000     0.00000000
 O      1   0   0     2.305013484889     0.00000000     0.00000000
 O      1   2   0     6.091575427661    86.81525121     0.00000000
 N      3   1   2     2.617704157033    64.80649706     0.28078366
 C      1   2   3     1.376897059151    70.41807392     0.00000000
 C      2   1   3     1.357247612265    71.11536559   359.94777898
 C      3   1   2     2.377031294535     6.73972516     0.29559473
 C      4   3   1     1.355663507519    86.45071268   359.88899981
 C      5   1   2     1.368375628648   129.81626945   179.99590403
 C      6   2   1     1.374547787819   128.14961130   180.10946259
 C      1   2   3     1.417044660811    36.19849079   180.83118917
 C      3   1   2     1.234361219056    24.65128243   180.40538227
 C     12   3   1     1.522621695720   118.20075889   179.89436973
 H      9   5   1     1.088824205051   119.94967860     0.14097247
 H     10   6   2     1.091227449688   121.11587941     0.00000000
 H     11   1   2     1.105702784345   110.21840758   119.14282737
 H     11   1   2     1.105269765013   110.18789797   240.82836093
 H      4   3   1     1.009096374671   153.22823784   181.87251792
 H      4   3   1     1.020399082099    30.54885510   180.29362452
 H     13  12   3     1.101558427299   111.46200165   239.64344735
 H     13  12   3     1.101750497444   111.51298812   119.60678408
 H     13  12   3     1.097197891980   108.09510041   359.64775571

---------------------------
INTERNAL COORDINATES (A.U.)
---------------------------
 O      0   0   0     0.000000000000     0.00000000     0.00000000
 O      1   0   0     4.355844221435     0.00000000     0.00000000
 O      1   2   0    11.511409282404    86.81525121     0.00000000
 N      3   1   2     4.946743956420    64.80649706     0.28078366
 C      1   2   3     2.601958356396    70.41807392     0.00000000
 C      2   1   3     2.564826283099    71.11536559   359.94777898
 C      3   1   2     4.491938158432     6.73972516     0.29559473
 C      4   3   1     2.561832758963    86.45071268   359.88899981
 C      5   1   2     2.585855186476   129.81626945   179.99590403
 C      6   2   1     2.597518876964   128.14961130   180.10946259
 C      1   2   3     2.677826328469    36.19849079   180.83118917
 C      3   1   2     2.332604654349    24.65128243   180.40538227
 C     12   3   1     2.877338010478   118.20075889   179.89436973
 H      9   5   1     2.057579555532   119.94967860     0.14097247
 H     10   6   2     2.062121029728   121.11587941     0.00000000
 H     11   1   2     2.089475447927   110.21840758   119.14282737
 H     11   1   2     2.088657159977   110.18789797   240.82836093
 H      4   3   1     1.906915790861   153.22823784   181.87251792
 H      4   3   1     1.928274812472    30.54885510   180.29362452
 H     13  12   3     2.081643748109   111.46200165   239.64344735
 H     13  12   3     2.082006708081   111.51298812   119.60678408
 H     13  12   3     2.073403530558   108.09510041   359.64775571

---------------------
BASIS SET INFORMATION
---------------------
There are 4 groups of distinct atoms

 Group   1 Type O   : 7s4p1d contracted to 3s2p1d pattern {511/31/1}
 Group   2 Type N   : 7s4p1d contracted to 3s2p1d pattern {511/31/1}
 Group   3 Type C   : 7s4p1d contracted to 3s2p1d pattern {511/31/1}
 Group   4 Type H   : 4s1p contracted to 2s1p pattern {31/1}

Atom   0O    basis set group =>   1
Atom   1O    basis set group =>   1
Atom   2O    basis set group =>   1
Atom   3N    basis set group =>   2
Atom   4C    basis set group =>   3
Atom   5C    basis set group =>   3
Atom   6C    basis set group =>   3
Atom   7C    basis set group =>   3
Atom   8C    basis set group =>   3
Atom   9C    basis set group =>   3
Atom  10C    basis set group =>   3
Atom  11C    basis set group =>   3
Atom  12C    basis set group =>   3
Atom  13H    basis set group =>   4
Atom  14H    basis set group =>   4
Atom  15H    basis set group =>   4
Atom  16H    basis set group =>   4
Atom  17H    basis set group =>   4
Atom  18H    basis set group =>   4
Atom  19H    basis set group =>   4
Atom  20H    basis set group =>   4
Atom  21H    basis set group =>   4
---------------------------------
AUXILIARY/J BASIS SET INFORMATION
---------------------------------
There are 4 groups of distinct atoms

 Group   1 Type O   : 12s5p4d2f1g contracted to 6s4p3d1f1g pattern {711111/2111/211/2/1}
 Group   2 Type N   : 12s5p4d2f1g contracted to 6s4p3d1f1g pattern {711111/2111/211/2/1}
 Group   3 Type C   : 12s5p4d2f1g contracted to 6s4p3d1f1g pattern {711111/2111/211/2/1}
 Group   4 Type H   : 5s2p1d contracted to 3s1p1d pattern {311/2/1}

Atom   0O    basis set group =>   1
Atom   1O    basis set group =>   1
Atom   2O    basis set group =>   1
Atom   3N    basis set group =>   2
Atom   4C    basis set group =>   3
Atom   5C    basis set group =>   3
Atom   6C    basis set group =>   3
Atom   7C    basis set group =>   3
Atom   8C    basis set group =>   3
Atom   9C    basis set group =>   3
Atom  10C    basis set group =>   3
Atom  11C    basis set group =>   3
Atom  12C    basis set group =>   3
Atom  13H    basis set group =>   4
Atom  14H    basis set group =>   4
Atom  15H    basis set group =>   4
Atom  16H    basis set group =>   4
Atom  17H    basis set group =>   4
Atom  18H    basis set group =>   4
Atom  19H    basis set group =>   4
Atom  20H    basis set group =>   4
Atom  21H    basis set group =>   4


           ************************************************************
           *        Program running with 8 parallel MPI-processes     *
           *              working on a common directory               *
           ************************************************************
------------------------------------------------------------------------------
                           ORCA GTO INTEGRAL CALCULATION
                           -- RI-GTO INTEGRALS CHOSEN --
------------------------------------------------------------------------------
------------------------------------------------------------------------------
                   ___                                                        
                  /   \      - P O W E R E D   B Y -                         
                 /     \                                                     
                 |  |  |   _    _      __       _____    __    __             
                 |  |  |  | |  | |    /  \     |  _  \  |  |  /  |          
                  \  \/   | |  | |   /    \    | | | |  |  | /  /          
                 / \  \   | |__| |  /  /\  \   | |_| |  |  |/  /          
                |  |  |   |  __  | /  /__\  \  |    /   |      \           
                |  |  |   | |  | | |   __   |  |    \   |  |\   \          
                \     /   | |  | | |  |  |  |  | |\  \  |  | \   \       
                 \___/    |_|  |_| |__|  |__|  |_| \__\ |__|  \__/        
                                                                              
                      - O R C A' S   B I G   F R I E N D -                    
                                      &                                       
                       - I N T E G R A L  F E E D E R -                       
                                                                              
 v1 FN, 2020, v2 2021                                                         
------------------------------------------------------------------------------


Reading SHARK input file /Users/armando/tmp/pubchem_120000_freq.SHARKINP.tmp ... ok
----------------------
SHARK INTEGRAL PACKAGE
----------------------

Number of atoms                             ...     22
Number of basis functions                   ...    227
Number of shells                            ...    105
Maximum angular momentum                    ...      2
Integral batch strategy                     ... SHARK/LIBINT Hybrid
RI-J (if used) integral strategy            ... SPLIT-RIJ (Revised 2003 algorithm where possible)
Printlevel                                  ...      1
Contraction scheme used                     ... SEGMENTED contraction
Coulomb Range Separation                    ... NOT USED
Exchange Range Separation                   ... NOT USED
Finite Nucleus Model                        ... NOT USED
Auxiliary Coulomb fitting basis             ... AVAILABLE
   # of basis functions in Aux-J            ...    736
   # of shells in Aux-J                     ...    240
   Maximum angular momentum in Aux-J        ...      4
Auxiliary J/K fitting basis                 ... NOT available
Auxiliary Correlation fitting basis         ... NOT available
Auxiliary 'external' fitting basis          ... NOT available
Integral threshold                          ...     1.000000e-10
Primitive cut-off                           ...     1.000000e-11
Primitive pair pre-selection threshold      ...     1.000000e-11

Calculating pre-screening integrals         ... done (  0.0 sec) Dimension = 105
Organizing shell pair data                  ... done (  0.0 sec)
Shell pair information
Total number of shell pairs                 ...      5565
Shell pairs after pre-screening             ...      4710
Total number of primitive shell pairs       ...     20497
Primitive shell pairs kept                  ...     11931
          la=0 lb=0:   1407 shell pairs
          la=1 lb=0:   1718 shell pairs
          la=1 lb=1:    537 shell pairs
          la=2 lb=0:    601 shell pairs
          la=2 lb=1:    372 shell pairs
          la=2 lb=2:     75 shell pairs

Calculating one electron integrals          ... done (  0.0 sec)
Calculating RI/J V-Matrix + Cholesky decomp.... done (  0.1 sec)
Calculating Nuclear repulsion               ... done (  0.0 sec) ENN=    778.423296146541 Eh

SHARK setup successfully completed in   0.2 seconds

Maximum memory used throughout the entire GTOINT-calculation: 12.8 MB


           ************************************************************
           *        Program running with 8 parallel MPI-processes     *
           *              working on a common directory               *
           ************************************************************
-------------------------------------------------------------------------------
                                 ORCA SCF
-------------------------------------------------------------------------------

------------
SCF SETTINGS
------------
Hamiltonian:
 Density Functional     Method          .... DFT(GTOs)
 Exchange Functional    Exchange        .... B88
   X-Alpha parameter    XAlpha          ....  0.666667
   Becke's b parameter  XBeta           ....  0.004200
 Correlation Functional Correlation     .... LYP
 LDA part of GGA corr.  LDAOpt          .... VWN-3
 Gradients option       PostSCFGGA      .... off
 Hybrid DFT is turned on
   Fraction HF Exchange ScalHFX         ....  0.200000
   Scaling of DF-GGA-X  ScalDFX         ....  0.720000
   Scaling of DF-GGA-C  ScalDFC         ....  0.810000
   Scaling of DF-LDA-C  ScalLDAC        ....  1.000000
   Perturbative correction              ....  0.000000
   Density functional embedding theory  .... OFF
   NL short-range parameter             ....  4.800000
 RI-approximation to the Coulomb term is turned on
   Number of AuxJ basis functions       .... 736
   RIJ-COSX (HFX calculated with COS-X)).... on


General Settings:
 Integral files         IntName         .... /Users/armando/tmp/pubchem_120000_freq
 Hartree-Fock type      HFTyp           .... RHF
 Total Charge           Charge          ....    0
 Multiplicity           Mult            ....    1
 Number of Electrons    NEL             ....   94
 Basis Dimension        Dim             ....  227
 Nuclear Repulsion      ENuc            ....    778.4232961465 Eh

Convergence Acceleration:
 DIIS                   CNVDIIS         .... on
   Start iteration      DIISMaxIt       ....    12
   Startup error        DIISStart       ....  0.200000
   # of expansion vecs  DIISMaxEq       ....     5
   Bias factor          DIISBfac        ....   1.050
   Max. coefficient     DIISMaxC        ....  10.000
 Trust-Rad. Augm. Hess. CNVTRAH         .... auto
   Auto Start mean grad. ratio tolernc. ....  1.125000
   Auto Start start iteration           ....    20
   Auto Start num. interpolation iter.  ....    10
   Max. Number of Micro iterations      ....    16
   Max. Number of Macro iterations      .... Maxiter - #DIIS iter
   Number of Davidson start vectors     ....     2
   Converg. threshold I  (grad. norm)   ....   5.000e-05
   Converg. threshold II (energy diff.) ....   1.000e-06
   Grad. Scal. Fac. for Micro threshold ....   0.100
   Minimum threshold for Micro iter.    ....   0.010
   NR start threshold (gradient norm)   ....   0.001
   Initial trust radius                 ....   0.400
   Minimum AH scaling param. (alpha)    ....   1.000
   Maximum AH scaling param. (alpha)    .... 1000.000
   Orbital update algorithm             .... Taylor
   White noise on init. David. guess    .... on
   Maximum white noise                  ....   0.010
   Quad. conv. algorithm                .... NR
 SOSCF                  CNVSOSCF        .... on
   Start iteration      SOSCFMaxIt      ....   150
   Startup grad/error   SOSCFStart      ....  0.003300
 Level Shifting         CNVShift        .... on
   Level shift para.    LevelShift      ....    0.2500
   Turn off err/grad.   ShiftErr        ....    0.0010
 Zerner damping         CNVZerner       .... off
 Static damping         CNVDamp         .... on
   Fraction old density DampFac         ....    0.7000
   Max. Damping (<1)    DampMax         ....    0.9800
   Min. Damping (>=0)   DampMin         ....    0.0000
   Turn off err/grad.   DampErr         ....    0.1000
 Fernandez-Rico         CNVRico         .... off

SCF Procedure:
 Maximum # iterations   MaxIter         ....   125
 SCF integral mode      SCFMode         .... Direct
   Integral package                     .... SHARK and LIBINT hybrid scheme
 Reset frequency        DirectResetFreq ....    20
 Integral Threshold     Thresh          ....  1.000e-10 Eh
 Primitive CutOff       TCut            ....  1.000e-11 Eh

Convergence Tolerance:
 Convergence Check Mode ConvCheckMode   .... Total+1el-Energy
 Convergence forced     ConvForced      .... 0
 Energy Change          TolE            ....  1.000e-06 Eh
 1-El. energy change                    ....  1.000e-03 Eh
 Orbital Gradient       TolG            ....  5.000e-05
 Orbital Rotation angle TolX            ....  5.000e-05
 DIIS Error             TolErr          ....  1.000e-06


Diagonalization of the overlap matrix:
Smallest eigenvalue                        ... 2.084e-04
Time for diagonalization                   ...    0.004 sec
Threshold for overlap eigenvalues          ... 1.000e-08
Number of eigenvalues below threshold      ... 0
Time for construction of square roots      ...    0.005 sec
Total time needed                          ...    0.009 sec

Time for model grid setup =    0.157 sec

------------------------------
INITIAL GUESS: MODEL POTENTIAL
------------------------------
Loading Hartree-Fock densities                     ... done
Calculating cut-offs                               ... done
Initializing the effective Hamiltonian             ... done
Setting up the integral package (SHARK)            ... done
Starting the Coulomb interaction                   ... done (   0.0 sec)
Reading the grid                                   ... done
Mapping shells                                     ... done
Starting the XC term evaluation                    ... done (   0.0 sec)
  promolecular density results
     # of electrons  =     93.998753710
     EX              =    -80.157782796
     EC              =     -3.249030236
     EX+EC           =    -83.406813031
Transforming the Hamiltonian                       ... done (   0.0 sec)
Diagonalizing the Hamiltonian                      ... done (   0.0 sec)
Back transforming the eigenvectors                 ... done (   0.0 sec)
Now organizing SCF variables                       ... done
                      ------------------
                      INITIAL GUESS DONE (   0.3 sec)
                      ------------------
-------------------
DFT GRID GENERATION
-------------------

General Integration Accuracy     IntAcc      ... 4.388
Radial Grid Type                 RadialGrid  ... OptM3 with GC (2021)
Angular Grid (max. ang.)         AngularGrid ... 4 (Lebedev-302)
Angular grid pruning method      GridPruning ... 4 (adaptive)
Weight generation scheme         WeightScheme... Becke
Basis function cutoff            BFCut       ... 1.0000e-10
Integration weight cutoff        WCut        ... 1.0000e-14
Angular grids for H and He will be reduced by one unit
Partially contracted basis set               ... off
Rotationally invariant grid construction     ... off

Total number of grid points                  ...   106972
Total number of batches                      ...     1681
Average number of points per batch           ...       63
Average number of grid points per atom       ...     4862
Time for grid setup =    0.496 sec

--------------------
COSX GRID GENERATION
--------------------

GRIDX 1
-------
General Integration Accuracy     IntAcc      ... 3.816
Radial Grid Type                 RadialGrid  ... OptM3 with GC (2021)
Angular Grid (max. ang.)         AngularGrid ... 1 (Lebedev-50)
Angular grid pruning method      GridPruning ... 4 (adaptive)
Weight generation scheme         WeightScheme... Becke
Basis function cutoff            BFCut       ... 1.0000e-10
Integration weight cutoff        WCut        ... 1.0000e-14
Angular grids for H and He will be reduced by one unit
Partially contracted basis set               ... on
Rotationally invariant grid construction     ... off

Total number of grid points                  ...    13639
Total number of batches                      ...      224
Average number of points per batch           ...       60
Average number of grid points per atom       ...      620
UseSFitting                                  ... on

GRIDX 2
-------
General Integration Accuracy     IntAcc      ... 4.020
Radial Grid Type                 RadialGrid  ... OptM3 with GC (2021)
Angular Grid (max. ang.)         AngularGrid ... 2 (Lebedev-110)
Angular grid pruning method      GridPruning ... 4 (adaptive)
Weight generation scheme         WeightScheme... Becke
Basis function cutoff            BFCut       ... 1.0000e-10
Integration weight cutoff        WCut        ... 1.0000e-14
Angular grids for H and He will be reduced by one unit
Partially contracted basis set               ... on
Rotationally invariant grid construction     ... off

Total number of grid points                  ...    30008
Total number of batches                      ...      480
Average number of points per batch           ...       62
Average number of grid points per atom       ...     1364
UseSFitting                                  ... on

GRIDX 3
-------
General Integration Accuracy     IntAcc      ... 4.338
Radial Grid Type                 RadialGrid  ... OptM3 with GC (2021)
Angular Grid (max. ang.)         AngularGrid ... 3 (Lebedev-194)
Angular grid pruning method      GridPruning ... 4 (adaptive)
Weight generation scheme         WeightScheme... Becke
Basis function cutoff            BFCut       ... 1.0000e-10
Integration weight cutoff        WCut        ... 1.0000e-14
Angular grids for H and He will be reduced by one unit
Partially contracted basis set               ... on
Rotationally invariant grid construction     ... off

Total number of grid points                  ...    65896
Total number of batches                      ...     1039
Average number of points per batch           ...       63
Average number of grid points per atom       ...     2995
UseSFitting                                  ... on

Time for X-Grid setup             =    0.568 sec

--------------
SCF ITERATIONS
--------------
ITER       Energy         Delta-E        Max-DP      RMS-DP      [F,P]     Damp
               ***  Starting incremental Fock matrix formation  ***
  0   -628.0216568462   0.000000000000 0.09676025  0.00255900  0.2558056 0.7000
  1   -628.1664027489  -0.144745902657 0.05805596  0.00169042  0.1044420 0.7000
                               ***Turning on DIIS***
  2   -628.2225092232  -0.056106474310 0.07422516  0.00274029  0.0392807 0.0000
  3   -628.3112532361  -0.088744012953 0.03912503  0.00116006  0.0555543 0.0000
  4   -628.3303722026  -0.019118966494 0.01086386  0.00034072  0.0145301 0.0000
  5   -628.3317278368  -0.001355634215 0.00457914  0.00012799  0.0068573 0.0000
                      *** Initiating the SOSCF procedure ***
                           *** Shutting down DIIS ***
                      *** Re-Reading the Fockian *** 
                      *** Removing any level shift *** 
ITER      Energy       Delta-E        Grad      Rot      Max-DP    RMS-DP
  6   -628.33183737  -0.0001095380  0.000464  0.000464  0.001279  0.000044
               *** Restarting incremental Fock matrix formation ***
  7   -628.33194659  -0.0001092119  0.000122  0.000631  0.000994  0.000032
  8   -628.33194764  -0.0000010540  0.000191  0.000612  0.000555  0.000013
  9   -628.33194862  -0.0000009770  0.000109  0.000348  0.000362  0.000009
 10   -628.33194871  -0.0000000935  0.000048  0.000089  0.000140  0.000004
 11   -628.33194883  -0.0000001204  0.000018  0.000077  0.000067  0.000002
 12   -628.33194882   0.0000000144  0.000015  0.000027  0.000044  0.000001
                 **** Energy Check signals convergence ****
              ***Rediagonalizing the Fockian in SOSCF/NRSCF***

               *****************************************************
               *                     SUCCESS                       *
               *           SCF CONVERGED AFTER  13 CYCLES          *
               *****************************************************

Old exchange energy                            =    -16.212419997 Eh
New exchange energy                            =    -16.212387066 Eh
Exchange energy change after final integration =      0.000032931 Eh
Total energy after final integration           =   -628.331915889 Eh
Final COS-X integration done in                =     1.694 sec

----------------
TOTAL SCF ENERGY
----------------

Total Energy       :         -628.33191589 Eh          -17097.78067 eV

Components:
Nuclear Repulsion  :          778.42329615 Eh           21181.97476 eV
Electronic Energy  :        -1406.75521204 Eh          -38279.75542 eV
One Electron Energy:        -2399.40563414 Eh          -65291.14664 eV
Two Electron Energy:          992.65042210 Eh           27011.39122 eV
Max COSX asymmetry :            0.00000318 Eh               0.00009 eV

Virial components:
Potential Energy   :        -1250.67474268 Eh          -34032.58993 eV
Kinetic Energy     :          622.34282679 Eh           16934.80927 eV
Virial Ratio       :            2.00962346


DFT components:
N(Alpha)           :       47.000037241959 electrons
N(Beta)            :       47.000037241959 electrons
N(Total)           :       94.000074483918 electrons
E(X)               :      -64.486487931147 Eh       
E(C)               :       -4.170376524525 Eh       
E(XC)              :      -68.656864455672 Eh       
DFET-embed. en.    :        0.000000000000 Eh       

---------------
SCF CONVERGENCE
---------------

  Last Energy change         ...   -2.5099e-09  Tolerance :   1.0000e-06
  Last MAX-Density change    ...    7.1054e-15  Tolerance :   1.0000e-05
  Last RMS-Density change    ...    6.7486e-17  Tolerance :   1.0000e-06
  Last Orbital Gradient      ...    6.9126e-06  Tolerance :   5.0000e-05
  Last Orbital Rotation      ...    2.1878e-05  Tolerance :   5.0000e-05

             **** THE GBW FILE WAS UPDATED (/Users/armando/tmp/pubchem_120000_freq.gbw) ****
             **** DENSITY /Users/armando/tmp/pubchem_120000_freq.scfp WAS UPDATED ****
             **** ENERGY FILE WAS UPDATED (/Users/armando/tmp/pubchem_120000_freq.en.tmp) ****
             **** THE GBW FILE WAS UPDATED (/Users/armando/tmp/pubchem_120000_freq.gbw) ****
             **** DENSITY /Users/armando/tmp/pubchem_120000_freq.scfp WAS UPDATED ****
----------------
ORBITAL ENERGIES
----------------

  NO   OCC          E(Eh)            E(eV) 
   0   2.0000     -19.189156      -522.1635 
   1   2.0000     -19.178289      -521.8678 
   2   2.0000     -19.110030      -520.0104 
   3   2.0000     -14.333004      -390.0209 
   4   2.0000     -10.313919      -280.6560 
   5   2.0000     -10.264638      -279.3150 
   6   2.0000     -10.261364      -279.2259 
   7   2.0000     -10.246245      -278.8145 
   8   2.0000     -10.243044      -278.7274 
   9   2.0000     -10.200832      -277.5787 
  10   2.0000     -10.194343      -277.4022 
  11   2.0000     -10.188589      -277.2456 
  12   2.0000     -10.185120      -277.1512 
  13   2.0000      -1.129120       -30.7249 
  14   2.0000      -1.033014       -28.1097 
  15   2.0000      -1.015185       -27.6246 
  16   2.0000      -0.916049       -24.9270 
  17   2.0000      -0.844545       -22.9812 
  18   2.0000      -0.771700       -20.9990 
  19   2.0000      -0.741686       -20.1823 
  20   2.0000      -0.721673       -19.6377 
  21   2.0000      -0.678379       -18.4596 
  22   2.0000      -0.633750       -17.2452 
  23   2.0000      -0.624128       -16.9834 
  24   2.0000      -0.569124       -15.4866 
  25   2.0000      -0.552335       -15.0298 
  26   2.0000      -0.531397       -14.4601 
  27   2.0000      -0.527245       -14.3471 
  28   2.0000      -0.509232       -13.8569 
  29   2.0000      -0.475035       -12.9264 
  30   2.0000      -0.455194       -12.3864 
  31   2.0000      -0.447288       -12.1713 
  32   2.0000      -0.439933       -11.9712 
  33   2.0000      -0.438822       -11.9410 
  34   2.0000      -0.431883       -11.7521 
  35   2.0000      -0.407935       -11.1005 
  36   2.0000      -0.396940       -10.8013 
  37   2.0000      -0.384819       -10.4715 
  38   2.0000      -0.383436       -10.4338 
  39   2.0000      -0.380527       -10.3547 
  40   2.0000      -0.368947       -10.0396 
  41   2.0000      -0.362218        -9.8564 
  42   2.0000      -0.343308        -9.3419 
  43   2.0000      -0.282493        -7.6870 
  44   2.0000      -0.246744        -6.7142 
  45   2.0000      -0.243413        -6.6236 
  46   2.0000      -0.192506        -5.2384 
  47   0.0000      -0.046375        -1.2619 
  48   0.0000       0.008084         0.2200 
  49   0.0000       0.050179         1.3654 
  50   0.0000       0.063326         1.7232 
  51   0.0000       0.068469         1.8631 
  52   0.0000       0.069389         1.8882 
  53   0.0000       0.096551         2.6273 
  54   0.0000       0.104773         2.8510 
  55   0.0000       0.112546         3.0625 
  56   0.0000       0.127995         3.4829 
  57   0.0000       0.131925         3.5899 
  58   0.0000       0.138694         3.7741 
  59   0.0000       0.142103         3.8668 
  60   0.0000       0.167587         4.5603 
  61   0.0000       0.174214         4.7406 
  62   0.0000       0.181057         4.9268 
  63   0.0000       0.214732         5.8432 
  64   0.0000       0.243420         6.6238 
  65   0.0000       0.253345         6.8939 
  66   0.0000       0.276887         7.5345 
  67   0.0000       0.284623         7.7450 
  68   0.0000       0.295498         8.0409 
  69   0.0000       0.317754         8.6465 
  70   0.0000       0.338377         9.2077 
  71   0.0000       0.346205         9.4207 
  72   0.0000       0.375776        10.2254 
  73   0.0000       0.394095        10.7239 
  74   0.0000       0.416442        11.3320 
  75   0.0000       0.423078        11.5125 
  76   0.0000       0.434182        11.8147 
  77   0.0000       0.444850        12.1050 
  78   0.0000       0.456083        12.4106 
  79   0.0000       0.459873        12.5138 
  80   0.0000       0.478007        13.0072 
  81   0.0000       0.492010        13.3883 
  82   0.0000       0.504140        13.7184 
  83   0.0000       0.514884        14.0107 
  84   0.0000       0.530347        14.4315 
  85   0.0000       0.538958        14.6658 
  86   0.0000       0.548679        14.9303 
  87   0.0000       0.566684        15.4203 
  88   0.0000       0.573588        15.6081 
  89   0.0000       0.595253        16.1976 
  90   0.0000       0.598784        16.2937 
  91   0.0000       0.602512        16.3952 
  92   0.0000       0.603894        16.4328 
  93   0.0000       0.614605        16.7242 
  94   0.0000       0.637432        17.3454 
  95   0.0000       0.646077        17.5807 
  96   0.0000       0.655643        17.8410 
  97   0.0000       0.660733        17.9794 
  98   0.0000       0.661706        18.0059 
  99   0.0000       0.674484        18.3536 
 100   0.0000       0.679936        18.5020 
 101   0.0000       0.701758        19.0958 
 102   0.0000       0.710376        19.3303 
 103   0.0000       0.724661        19.7190 
 104   0.0000       0.742485        20.2040 
 105   0.0000       0.743071        20.2200 
 106   0.0000       0.776530        21.1305 
 107   0.0000       0.777473        21.1561 
 108   0.0000       0.793972        21.6051 
 109   0.0000       0.809154        22.0182 
 110   0.0000       0.825007        22.4496 
 111   0.0000       0.849346        23.1119 
 112   0.0000       0.869819        23.6690 
 113   0.0000       0.937208        25.5027 
 114   0.0000       0.947883        25.7932 
 115   0.0000       0.974711        26.5232 
 116   0.0000       0.995802        27.0972 
 117   0.0000       1.022841        27.8329 
 118   0.0000       1.030233        28.0341 
 119   0.0000       1.049866        28.5683 
 120   0.0000       1.087287        29.5866 
 121   0.0000       1.098260        29.8852 
 122   0.0000       1.123120        30.5616 
 123   0.0000       1.162104        31.6224 
 124   0.0000       1.168709        31.8022 
 125   0.0000       1.175281        31.9810 
 126   0.0000       1.224599        33.3230 
 127   0.0000       1.239264        33.7221 
 128   0.0000       1.250102        34.0170 
 129   0.0000       1.260451        34.2986 
 130   0.0000       1.260972        34.3128 
 131   0.0000       1.287973        35.0475 
 132   0.0000       1.292939        35.1827 
 133   0.0000       1.335960        36.3533 
 134   0.0000       1.373256        37.3682 
 135   0.0000       1.388615        37.7861 
 136   0.0000       1.395797        37.9816 
 137   0.0000       1.436924        39.1007 
 138   0.0000       1.477826        40.2137 
 139   0.0000       1.488425        40.5021 
 140   0.0000       1.507270        41.0149 
 141   0.0000       1.525022        41.4980 
 142   0.0000       1.552245        42.2387 
 143   0.0000       1.572317        42.7849 
 144   0.0000       1.593982        43.3744 
 145   0.0000       1.624929        44.2166 
 146   0.0000       1.636154        44.5220 
 147   0.0000       1.661810        45.2201 
 148   0.0000       1.672229        45.5037 
 149   0.0000       1.695773        46.1443 
 150   0.0000       1.712749        46.6063 
 151   0.0000       1.714660        46.6583 
 152   0.0000       1.737124        47.2695 
 153   0.0000       1.742142        47.4061 
 154   0.0000       1.755518        47.7701 
 155   0.0000       1.770770        48.1851 
 156   0.0000       1.787020        48.6273 
 157   0.0000       1.787164        48.6312 
 158   0.0000       1.802433        49.0467 
 159   0.0000       1.811017        49.2803 
 160   0.0000       1.824766        49.6544 
 161   0.0000       1.832606        49.8677 
 162   0.0000       1.836015        49.9605 
 163   0.0000       1.850345        50.3504 
 164   0.0000       1.867246        50.8104 
 165   0.0000       1.877569        51.0913 
 166   0.0000       1.880810        51.1794 
 167   0.0000       1.926288        52.4170 
 168   0.0000       1.943889        52.8959 
 169   0.0000       1.962314        53.3973 
 170   0.0000       1.983135        53.9638 
 171   0.0000       2.020316        54.9756 
 172   0.0000       2.045627        55.6643 
 173   0.0000       2.056392        55.9573 
 174   0.0000       2.114618        57.5417 
 175   0.0000       2.135279        58.1039 
 176   0.0000       2.148228        58.4563 
 177   0.0000       2.157194        58.7002 
 178   0.0000       2.169538        59.0361 
 179   0.0000       2.219686        60.4007 
 180   0.0000       2.231175        60.7133 
 181   0.0000       2.241619        60.9975 
 182   0.0000       2.254215        61.3403 
 183   0.0000       2.256921        61.4139 
 184   0.0000       2.280647        62.0596 
 185   0.0000       2.328929        63.3734 
 186   0.0000       2.344609        63.8000 
 187   0.0000       2.359892        64.2159 
 188   0.0000       2.384910        64.8967 
 189   0.0000       2.426791        66.0363 
 190   0.0000       2.454348        66.7862 
 191   0.0000       2.464732        67.0688 
 192   0.0000       2.526407        68.7470 
 193   0.0000       2.534784        68.9750 
 194   0.0000       2.591661        70.5227 
 195   0.0000       2.617465        71.2248 
 196   0.0000       2.665741        72.5385 
 197   0.0000       2.682360        72.9907 
 198   0.0000       2.685175        73.0673 
 199   0.0000       2.688385        73.1547 
 200   0.0000       2.696319        73.3706 
 201   0.0000       2.720024        74.0156 
 202   0.0000       2.725684        74.1696 
 203   0.0000       2.737193        74.4828 
 204   0.0000       2.805749        76.3483 
 205   0.0000       2.831514        77.0494 
 206   0.0000       2.853109        77.6370 
 207   0.0000       2.897928        78.8566 
 208   0.0000       2.911783        79.2336 
 209   0.0000       2.923870        79.5625 
 210   0.0000       2.965078        80.6839 
 211   0.0000       3.007250        81.8314 
 212   0.0000       3.042977        82.8036 
 213   0.0000       3.045135        82.8623 
 214   0.0000       3.089495        84.0694 
 215   0.0000       3.096803        84.2683 
 216   0.0000       3.140278        85.4513 
 217   0.0000       3.154886        85.8488 
 218   0.0000       3.201740        87.1238 
 219   0.0000       3.259012        88.6822 
 220   0.0000       3.305934        89.9590 
 221   0.0000       3.372589        91.7728 
 222   0.0000       3.473448        94.5173 
 223   0.0000       3.484406        94.8155 
 224   0.0000       3.546956        96.5176 
 225   0.0000       3.659488        99.5797 
 226   0.0000       3.741925       101.8230 

                    ********************************
                    * MULLIKEN POPULATION ANALYSIS *
                    ********************************

-----------------------
MULLIKEN ATOMIC CHARGES
-----------------------
   0 O :   -0.319381
   1 O :   -0.306267
   2 O :   -0.269947
   3 N :   -0.026512
   4 C :    0.205035
   5 C :    0.198215
   6 C :    0.032753
   7 C :    0.001653
   8 C :   -0.145465
   9 C :   -0.132042
  10 C :    0.408076
  11 C :   -0.014758
  12 C :    0.061999
  13 H :   -0.026944
  14 H :   -0.044814
  15 H :    0.028131
  16 H :    0.029118
  17 H :    0.101060
  18 H :    0.133856
  19 H :    0.030946
  20 H :    0.031237
  21 H :    0.024052
Sum of atomic charges:   -0.0000000

--------------------------------
MULLIKEN REDUCED ORBITAL CHARGES
--------------------------------
  0 O s       :     3.744737  s :     3.744737
      pz      :     1.818960  p :     4.557392
      px      :     1.185530
      py      :     1.552902
      dz2     :     0.002297  d :     0.017253
      dxz     :     0.002398
      dyz     :     0.002346
      dx2y2   :     0.002506
      dxy     :     0.007706
  1 O s       :     3.742907  s :     3.742907
      pz      :     1.791079  p :     4.545890
      px      :     1.297184
      py      :     1.457627
      dz2     :     0.002300  d :     0.017470
      dxz     :     0.002822
      dyz     :     0.001927
      dx2y2   :     0.006667
      dxy     :     0.003753
  2 O s       :     3.746899  s :     3.746899
      pz      :     1.392939  p :     4.506773
      px      :     1.554056
      py      :     1.559779
      dz2     :     0.001823  d :     0.016275
      dxz     :     0.003102
      dyz     :     0.002038
      dx2y2   :     0.003599
      dxy     :     0.005713
  3 N s       :     3.269892  s :     3.269892
      pz      :     1.678431  p :     3.741423
      px      :     1.072746
      py      :     0.990246
      dz2     :     0.001650  d :     0.015198
      dxz     :     0.001492
      dyz     :     0.001399
      dx2y2   :     0.005415
      dxy     :     0.005242
  4 C s       :     2.959358  s :     2.959358
      pz      :     1.084507  p :     2.764153
      px      :     0.777992
      py      :     0.901654
      dz2     :     0.005544  d :     0.071455
      dxz     :     0.015341
      dyz     :     0.007788
      dx2y2   :     0.021187
      dxy     :     0.021594
  5 C s       :     2.999108  s :     2.999108
      pz      :     0.981513  p :     2.726224
      px      :     0.770216
      py      :     0.974494
      dz2     :     0.005690  d :     0.076453
      dxz     :     0.018209
      dyz     :     0.008593
      dx2y2   :     0.025850
      dxy     :     0.018112
  6 C s       :     3.079969  s :     3.079969
      pz      :     1.146061  p :     2.852246
      px      :     0.826330
      py      :     0.879855
      dz2     :     0.003201  d :     0.035031
      dxz     :     0.003985
      dyz     :     0.005196
      dx2y2   :     0.012019
      dxy     :     0.010631
  7 C s       :     3.044433  s :     3.044433
      pz      :     0.908755  p :     2.891137
      px      :     0.930537
      py      :     1.051844
      dz2     :     0.004443  d :     0.062777
      dxz     :     0.011976
      dyz     :     0.012113
      dx2y2   :     0.016295
      dxy     :     0.017950
  8 C s       :     3.371530  s :     3.371530
      pz      :     1.016678  p :     2.739020
      px      :     0.951096
      py      :     0.771246
      dz2     :     0.002822  d :     0.034914
      dxz     :     0.008850
      dyz     :     0.002579
      dx2y2   :     0.011691
      dxy     :     0.008971
  9 C s       :     3.360414  s :     3.360414
      pz      :     1.129704  p :     2.741015
      px      :     0.885007
      py      :     0.726304
      dz2     :     0.002812  d :     0.030614
      dxz     :     0.004967
      dyz     :     0.003181
      dx2y2   :     0.009184
      dxy     :     0.010469
 10 C s       :     2.976302  s :     2.976302
      pz      :     1.055405  p :     2.528939
      px      :     0.832211
      py      :     0.641323
      dz2     :     0.012643  d :     0.086683
      dxz     :     0.019061
      dyz     :     0.011533
      dx2y2   :     0.018878
      dxy     :     0.024568
 11 C s       :     3.173340  s :     3.173340
      pz      :     0.803814  p :     2.748766
      px      :     0.953016
      py      :     0.991936
      dz2     :     0.005040  d :     0.092652
      dxz     :     0.014888
      dyz     :     0.010490
      dx2y2   :     0.039001
      dxy     :     0.023233
 12 C s       :     2.922076  s :     2.922076
      pz      :     0.996224  p :     2.990967
      px      :     1.001958
      py      :     0.992786
      dz2     :     0.004956  d :     0.024959
      dxz     :     0.003424
      dyz     :     0.005462
      dx2y2   :     0.007632
      dxy     :     0.003485
 13 H s       :     1.003677  s :     1.003677
      pz      :     0.005065  p :     0.023267
      px      :     0.003995
      py      :     0.014208
 14 H s       :     1.021494  s :     1.021494
      pz      :     0.005612  p :     0.023320
      px      :     0.004015
      py      :     0.013694
 15 H s       :     0.952025  s :     0.952025
      pz      :     0.012199  p :     0.019844
      px      :     0.005543
      py      :     0.002102
 16 H s       :     0.951033  s :     0.951033
      pz      :     0.011102  p :     0.019849
      px      :     0.006833
      py      :     0.001913
 17 H s       :     0.853833  s :     0.853833
      pz      :     0.013038  p :     0.045107
      px      :     0.008772
      py      :     0.023297
 18 H s       :     0.814573  s :     0.814573
      pz      :     0.011590  p :     0.051571
      px      :     0.027352
      py      :     0.012628
 19 H s       :     0.945124  s :     0.945124
      pz      :     0.011131  p :     0.023930
      px      :     0.006007
      py      :     0.006793
 20 H s       :     0.944828  s :     0.944828
      pz      :     0.011250  p :     0.023935
      px      :     0.006377
      py      :     0.006308
 21 H s       :     0.953184  s :     0.953184
      pz      :     0.004660  p :     0.022764
      px      :     0.014471
      py      :     0.003633


                     *******************************
                     * LOEWDIN POPULATION ANALYSIS *
                     *******************************

----------------------
LOEWDIN ATOMIC CHARGES
----------------------
   0 O :   -0.121281
   1 O :   -0.101357
   2 O :   -0.195859
   3 N :    0.012581
   4 C :   -0.005242
   5 C :    0.051717
   6 C :   -0.127529
   7 C :    0.066317
   8 C :   -0.031896
   9 C :   -0.099248
  10 C :    0.210074
  11 C :    0.082948
  12 C :   -0.074134
  13 H :    0.034204
  14 H :    0.029888
  15 H :    0.012304
  16 H :    0.013007
  17 H :    0.071287
  18 H :    0.060989
  19 H :    0.037659
  20 H :    0.037926
  21 H :    0.035645

-------------------------------
LOEWDIN REDUCED ORBITAL CHARGES
-------------------------------
  0 O s       :     3.457327  s :     3.457327
      pz      :     1.806987  p :     4.632686
      px      :     1.239393
      py      :     1.586306
      dz2     :     0.003736  d :     0.031267
      dxz     :     0.004414
      dyz     :     0.002747
      dx2y2   :     0.004449
      dxy     :     0.015921
  1 O s       :     3.455927  s :     3.455927
      pz      :     1.775439  p :     4.613876
      px      :     1.347092
      py      :     1.491345
      dz2     :     0.003788  d :     0.031554
      dxz     :     0.004444
      dyz     :     0.002412
      dx2y2   :     0.013225
      dxy     :     0.007686
  2 O s       :     3.545646  s :     3.545646
      pz      :     1.389061  p :     4.621790
      px      :     1.613601
      py      :     1.619129
      dz2     :     0.003934  d :     0.028422
      dxz     :     0.003746
      dyz     :     0.002571
      dx2y2   :     0.006273
      dxy     :     0.011898
  3 N s       :     3.021754  s :     3.021754
      pz      :     1.612247  p :     3.924124
      px      :     1.178915
      py      :     1.132961
      dz2     :     0.003018  d :     0.041542
      dxz     :     0.002728
      dyz     :     0.002710
      dx2y2   :     0.017218
      dxy     :     0.015869
  4 C s       :     2.831701  s :     2.831701
      pz      :     1.063199  p :     3.004571
      px      :     0.964599
      py      :     0.976773
      dz2     :     0.012061  d :     0.168971
      dxz     :     0.030803
      dyz     :     0.015810
      dx2y2   :     0.055441
      dxy     :     0.054856
  5 C s       :     2.837881  s :     2.837881
      pz      :     0.963454  p :     2.932849
      px      :     0.884265
      py      :     1.085131
      dz2     :     0.012281  d :     0.177553
      dxz     :     0.035994
      dyz     :     0.017820
      dx2y2   :     0.066164
      dxy     :     0.045293
  6 C s       :     2.854627  s :     2.854627
      pz      :     1.117883  p :     3.176296
      px      :     1.029634
      py      :     1.028780
      dz2     :     0.007998  d :     0.096606
      dxz     :     0.008253
      dyz     :     0.010809
      dx2y2   :     0.035946
      dxy     :     0.033600
  7 C s       :     2.835749  s :     2.835749
      pz      :     0.907855  p :     2.950034
      px      :     1.015519
      py      :     1.026659
      dz2     :     0.009423  d :     0.147900
      dxz     :     0.024605
      dyz     :     0.025209
      dx2y2   :     0.041466
      dxy     :     0.047196
  8 C s       :     2.856317  s :     2.856317
      pz      :     1.001104  p :     3.084370
      px      :     1.044324
      py      :     1.038941
      dz2     :     0.006521  d :     0.091209
      dxz     :     0.018860
      dyz     :     0.004722
      dx2y2   :     0.033222
      dxy     :     0.027884
  9 C s       :     2.856185  s :     2.856185
      pz      :     1.103815  p :     3.159617
      px      :     1.025446
      py      :     1.030356
      dz2     :     0.006771  d :     0.083445
      dxz     :     0.010531
      dyz     :     0.005478
      dx2y2   :     0.029222
      dxy     :     0.031444
 10 C s       :     2.856406  s :     2.856406
      pz      :     1.094699  p :     2.748143
      px      :     0.893331
      py      :     0.760113
      dz2     :     0.026568  d :     0.185378
      dxz     :     0.047607
      dyz     :     0.022000
      dx2y2   :     0.038015
      dxy     :     0.051187
 11 C s       :     2.872606  s :     2.872606
      pz      :     0.788739  p :     2.833081
      px      :     1.024294
      py      :     1.020047
      dz2     :     0.011964  d :     0.211365
      dxz     :     0.028902
      dyz     :     0.017895
      dx2y2   :     0.096463
      dxy     :     0.056141
 12 C s       :     2.849727  s :     2.849727
      pz      :     1.060018  p :     3.157870
      px      :     1.068331
      py      :     1.029521
      dz2     :     0.013489  d :     0.066538
      dxz     :     0.008098
      dyz     :     0.014422
      dx2y2   :     0.021581
      dxy     :     0.008948
 13 H s       :     0.895508  s :     0.895508
      pz      :     0.015626  p :     0.070288
      px      :     0.012885
      py      :     0.041777
 14 H s       :     0.899939  s :     0.899939
      pz      :     0.017867  p :     0.070172
      px      :     0.012966
      py      :     0.039340
 15 H s       :     0.924544  s :     0.924544
      pz      :     0.037115  p :     0.063152
      px      :     0.018635
      py      :     0.007402
 16 H s       :     0.923874  s :     0.923874
      pz      :     0.033441  p :     0.063119
      px      :     0.022872
      py      :     0.006806
 17 H s       :     0.805193  s :     0.805193
      pz      :     0.040549  p :     0.123520
      px      :     0.021173
      py      :     0.061798
 18 H s       :     0.783945  s :     0.783945
      pz      :     0.038784  p :     0.155065
      px      :     0.080228
      py      :     0.036052
 19 H s       :     0.896116  s :     0.896116
      pz      :     0.030437  p :     0.066225
      px      :     0.015390
      py      :     0.020399
 20 H s       :     0.895884  s :     0.895884
      pz      :     0.030589  p :     0.066190
      px      :     0.016651
      py      :     0.018950
 21 H s       :     0.898879  s :     0.898879
      pz      :     0.011801  p :     0.065475
      px      :     0.042146
      py      :     0.011528


                      *****************************
                      * MAYER POPULATION ANALYSIS *
                      *****************************

  NA   - Mulliken gross atomic population
  ZA   - Total nuclear charge
  QA   - Mulliken gross atomic charge
  VA   - Mayer's total valence
  BVA  - Mayer's bonded valence
  FA   - Mayer's free valence

  ATOM       NA         ZA         QA         VA         BVA        FA
  0 O      8.3194     8.0000    -0.3194     2.1767     2.1767    -0.0000
  1 O      8.3063     8.0000    -0.3063     2.2149     2.2149    -0.0000
  2 O      8.2699     8.0000    -0.2699     2.2475     2.2475    -0.0000
  3 N      7.0265     7.0000    -0.0265     3.2988     3.2988    -0.0000
  4 C      5.7950     6.0000     0.2050     3.8427     3.8427    -0.0000
  5 C      5.8018     6.0000     0.1982     3.9220     3.9220    -0.0000
  6 C      5.9672     6.0000     0.0328     3.5203     3.5203    -0.0000
  7 C      5.9983     6.0000     0.0017     4.1006     4.1006    -0.0000
  8 C      6.1455     6.0000    -0.1455     3.8557     3.8557    -0.0000
  9 C      6.1320     6.0000    -0.1320     3.7400     3.7400    -0.0000
 10 C      5.5919     6.0000     0.4081     3.9065     3.9065    -0.0000
 11 C      6.0148     6.0000    -0.0148     4.2415     4.2415    -0.0000
 12 C      5.9380     6.0000     0.0620     3.9024     3.9024    -0.0000
 13 H      1.0269     1.0000    -0.0269     1.0098     1.0098    -0.0000
 14 H      1.0448     1.0000    -0.0448     0.9982     0.9982    -0.0000
 15 H      0.9719     1.0000     0.0281     0.9770     0.9770     0.0000
 16 H      0.9709     1.0000     0.0291     0.9771     0.9771    -0.0000
 17 H      0.8989     1.0000     0.1011     1.0034     1.0034     0.0000
 18 H      0.8661     1.0000     0.1339     1.0599     1.0599     0.0000
 19 H      0.9691     1.0000     0.0309     0.9928     0.9928    -0.0000
 20 H      0.9688     1.0000     0.0312     0.9926     0.9926    -0.0000
 21 H      0.9759     1.0000     0.0241     1.0178     1.0178    -0.0000

  Mayer bond orders larger than 0.100000
B(  0-O ,  4-C ) :   1.0518 B(  0-O , 10-C ) :   1.0015 B(  1-O ,  5-C ) :   1.1031 
B(  1-O , 10-C ) :   0.9709 B(  2-O , 11-C ) :   1.9655 B(  2-O , 18-H ) :   0.1239 
B(  3-N ,  7-C ) :   1.4040 B(  3-N , 17-H ) :   0.9327 B(  3-N , 18-H ) :   0.8757 
B(  4-C ,  5-C ) :   1.2421 B(  4-C ,  8-C ) :   1.4343 B(  5-C ,  9-C ) :   1.4165 
B(  6-C ,  7-C ) :   1.2562 B(  6-C ,  8-C ) :   1.2178 B(  6-C , 11-C ) :   1.0268 
B(  7-C ,  9-C ) :   1.2033 B(  8-C ,  9-C ) :   0.1031 B(  8-C , 13-H ) :   1.0001 
B(  9-C , 14-H ) :   1.0077 B( 10-C , 15-H ) :   0.9525 B( 10-C , 16-H ) :   0.9533 
B( 11-C , 12-C ) :   1.0856 B( 12-C , 19-H ) :   0.9395 B( 12-C , 20-H ) :   0.9391 
B( 12-C , 21-H ) :   0.9478 

-------
TIMINGS
-------

Total SCF time: 0 days 0 hours 0 min 14 sec 

Total time                  ....      14.696 sec
Sum of individual times     ....      14.380 sec  ( 97.9%)

Fock matrix formation       ....      12.687 sec  ( 86.3%)
  Split-RI-J                ....       1.174 sec  (  9.2% of F)
  Chain of spheres X        ....       9.107 sec  ( 71.8% of F)
  XC integration            ....       2.050 sec  ( 16.2% of F)
    Basis function eval.    ....       0.606 sec  ( 29.6% of XC)
    Density eval.           ....       0.341 sec  ( 16.7% of XC)
    XC-Functional eval.     ....       0.080 sec  (  3.9% of XC)
    XC-Potential eval.      ....       0.372 sec  ( 18.1% of XC)
Diagonalization             ....       0.117 sec  (  0.8%)
Density matrix formation    ....       0.013 sec  (  0.1%)
Population analysis         ....       0.022 sec  (  0.1%)
Initial guess               ....       0.114 sec  (  0.8%)
Orbital Transformation      ....       0.000 sec  (  0.0%)
Orbital Orthonormalization  ....       0.000 sec  (  0.0%)
DIIS solution               ....       0.117 sec  (  0.8%)
SOSCF solution              ....       0.090 sec  (  0.6%)
Grid generation             ....       1.221 sec  (  8.3%)

Maximum memory used throughout the entire SCF-calculation: 58.8 MB

-------------------------   --------------------
FINAL SINGLE POINT ENERGY      -628.331915889212
-------------------------   --------------------


                            ***************************************
                            *     ORCA property calculations      *
                            ***************************************

                                    ---------------------
                                    Active property flags
                                    ---------------------
   (+) Dipole Moment


------------------------------------------------------------------------------
                       ORCA ELECTRIC PROPERTIES CALCULATION
------------------------------------------------------------------------------

Dipole Moment Calculation                       ... on
Quadrupole Moment Calculation                   ... off
Polarizability Calculation                      ... off
GBWName                                         ... /Users/armando/tmp/pubchem_120000_freq.gbw
Electron density                                ... /Users/armando/tmp/pubchem_120000_freq.scfp
The origin for moment calculation is the CENTER OF MASS  = (-0.022244, -0.034340  0.168027)

-------------
DIPOLE MOMENT
-------------
                                X             Y             Z
Electronic contribution:      4.74569      -2.98392      -0.29838
Nuclear contribution   :     -3.79618       2.86386       0.22950
                        -----------------------------------------
Total Dipole Moment    :      0.94951      -0.12006      -0.06887
                        -----------------------------------------
Magnitude (a.u.)       :      0.95955
Magnitude (Debye)      :      2.43897



--------------------
Rotational spectrum 
--------------------
 
Rotational constants in cm-1:     0.056876     0.018168     0.013843 
Rotational constants in MHz :  1705.092147   544.660845   415.001638 

 Dipole components along the rotational axes: 
x,y,z [a.u.] :    -0.948558    -0.143783    -0.017076 
x,y,z [Debye]:    -2.411044    -0.365467    -0.043403 

 


           ************************************************************
           *        Program running with 8 parallel MPI-processes     *
           *              working on a common directory               *
           ************************************************************

-------------------------------------------------------------------------------
                               ORCA SCF HESSIAN
-------------------------------------------------------------------------------

                   --------- SHARK INITIALIZATION DONE ---------

Hessian of the Kohn-Sham DFT energy:
Kohn-Sham wavefunction type                      ... RKS
Hartree-Fock exchange scaling                    ...    0.200
Number of operators                              ...    1
Number of atoms                                  ...   22
Basis set dimensions                             ...  227
Integral neglect threshold                       ... 1.0e-10
Integral primitive cutoff                        ... 1.0e-11

Setting up DFT Hessian calculations              ... 

HESS GRID
---------

General Integration Accuracy     IntAcc      ... 4.629
Radial Grid Type                 RadialGrid  ... OptM3 with GC (2021)
Angular Grid (max. ang.)         AngularGrid ... 5 (Lebedev-434)
Angular grid pruning method      GridPruning ... 4 (adaptive)
Weight generation scheme         WeightScheme... Becke
Basis function cutoff            BFCut       ... 1.0000e-10
Integration weight cutoff        WCut        ... 1.0000e-14
Angular grids for H and He will be reduced by one unit
Partially contracted basis set               ... off
Rotationally invariant grid construction     ... off

Total number of grid points                  ...   166158
Total number of batches                      ...     2608
Average number of points per batch           ...       63
Average number of grid points per atom       ...     7553

Building densities                               ... done   (      0.0 sec)
Calculating rho(r) on the grid                   ... done   (      0.2 sec)
Building xc-kernel on the grid                   ... done   (      0.1 sec)
                                                     done   (      1.7 sec)

Nuclear repulsion Hessian  (SHARK)               ... done   (      0.0 sec)

----------------------------------------------
Forming right-hand sides of CP-SCF equations     ...
----------------------------------------------
One electron integral derivatives  (SHARK)       ... done   (      0.0 sec)
Transforming the overlap derivative matrices     ... done   (      0.1 sec)
Making the Q(x) pseudodensities                  ... done   (      0.0 sec)
Adding the E*S(x)*S(y) terms to the Hessian      ... done   (      0.0 sec)
Calculating energy weighted overlap derivatives  ... done   (      0.0 sec)
Two electron integral derivatives (SHARK-RI)     ... done   (      7.4 sec)
Exchange-correlation integral derivatives        ... done   (     14.4 sec)
tr(F(y)Q(x)) contribution to the Hessian         ... done   (      0.0 sec)
Response fock operator R(S(x)) (SHARK-RIJCOSX)   ... done   (      6.5 sec)
XC Response fock operator R(S(x))                ... done   (      6.4 sec)
tr(F(y)S(x)) contribution to the Hessian         ... done   (      0.0 sec)
Transforming and finalizing RHSs                 ... done   (      0.1 sec)

----------------------------------------------
Solving the CP-SCF equations (RIJCOSX)           ...
----------------------------------------------
     CP-SCF ITERATION   0:   5.1333e-01 (   4.9 sec   0/ 66 done)
     CP-SCF ITERATION   1:   5.0306e-02 (   4.6 sec   0/ 66 done)
     CP-SCF ITERATION   2:   2.0377e-02 (   4.7 sec   1/ 66 done)
     CP-SCF ITERATION   3:   7.7462e-03 (   4.6 sec  18/ 66 done)
     CP-SCF ITERATION   4:   3.8226e-03 (   3.4 sec  44/ 66 done)
     CP-SCF ITERATION   5:   8.3717e-04 (   2.0 sec  66/ 66 done)
                    *** THE CP-SCF HAS CONVERGED ***

                                                 ... done   (     24.6 sec)
Forming perturbed density Hessian contributions  ... done   (      0.0 sec)
2nd integral derivative contribs (SHARK-RI)      ... done   (     19.2 sec)
Exchange-correlation Hessian                     ... done   (     11.9 sec)
Dipole derivatives                               ... (center of mass: -0.022244, -0.034340  0.168027)done   (      0.1 sec)

Total SCF Hessian time: 0 days 0 hours 1 min 32 sec 

Writing the Hessian file to the disk             ... done


Maximum memory used throughout the entire SCFHESS-calculation: 190.4 MB

-----------------------
VIBRATIONAL FREQUENCIES
-----------------------

Scaling factor for frequencies =  1.000000000  (already applied!)

   0:         0.00 cm**-1
   1:         0.00 cm**-1
   2:         0.00 cm**-1
   3:         0.00 cm**-1
   4:         0.00 cm**-1
   5:         0.00 cm**-1
   6:       -63.00 cm**-1 ***imaginary mode***
   7:        81.66 cm**-1
   8:        97.42 cm**-1
   9:       164.92 cm**-1
  10:       169.20 cm**-1
  11:       213.24 cm**-1
  12:       234.20 cm**-1
  13:       294.70 cm**-1
  14:       349.37 cm**-1
  15:       354.72 cm**-1
  16:       367.51 cm**-1
  17:       410.62 cm**-1
  18:       440.77 cm**-1
  19:       465.41 cm**-1
  20:       531.15 cm**-1
  21:       583.67 cm**-1
  22:       654.66 cm**-1
  23:       686.57 cm**-1
  24:       695.99 cm**-1
  25:       727.14 cm**-1
  26:       751.97 cm**-1
  27:       754.15 cm**-1
  28:       794.34 cm**-1
  29:       849.47 cm**-1
  30:       865.33 cm**-1
  31:       895.29 cm**-1
  32:       947.50 cm**-1
  33:       991.47 cm**-1
  34:      1030.00 cm**-1
  35:      1039.73 cm**-1
  36:      1072.74 cm**-1
  37:      1086.89 cm**-1
  38:      1139.15 cm**-1
  39:      1147.26 cm**-1
  40:      1197.88 cm**-1
  41:      1235.29 cm**-1
  42:      1256.58 cm**-1
  43:      1298.46 cm**-1
  44:      1326.16 cm**-1
  45:      1371.31 cm**-1
  46:      1426.16 cm**-1
  47:      1440.22 cm**-1
  48:      1441.78 cm**-1
  49:      1455.09 cm**-1
  50:      1481.19 cm**-1
  51:      1525.16 cm**-1
  52:      1545.38 cm**-1
  53:      1587.89 cm**-1
  54:      1648.66 cm**-1
  55:      1709.14 cm**-1
  56:      1725.15 cm**-1
  57:      3009.55 cm**-1
  58:      3037.46 cm**-1
  59:      3062.87 cm**-1
  60:      3114.36 cm**-1
  61:      3159.46 cm**-1
  62:      3200.56 cm**-1
  63:      3232.57 cm**-1
  64:      3451.63 cm**-1
  65:      3698.07 cm**-1


------------
NORMAL MODES
------------

These modes are the Cartesian displacements weighted by the diagonal matrix
M(i,i)=1/sqrt(m[i]) where m[i] is the mass of the displaced atom
Thus, these vectors are normalized but *not* orthogonal

                  0          1          2          3          4          5    
      0       0.000000   0.000000   0.000000   0.000000   0.000000   0.000000
      1       0.000000   0.000000   0.000000   0.000000   0.000000   0.000000
      2       0.000000   0.000000   0.000000   0.000000   0.000000   0.000000
      3       0.000000   0.000000   0.000000   0.000000   0.000000   0.000000
      4       0.000000   0.000000   0.000000   0.000000   0.000000   0.000000
      5       0.000000   0.000000   0.000000   0.000000   0.000000   0.000000
      6       0.000000   0.000000   0.000000   0.000000   0.000000   0.000000
      7       0.000000   0.000000   0.000000   0.000000   0.000000   0.000000
      8       0.000000   0.000000   0.000000   0.000000   0.000000   0.000000
      9       0.000000   0.000000   0.000000   0.000000   0.000000   0.000000
     10       0.000000   0.000000   0.000000   0.000000   0.000000   0.000000
     11       0.000000   0.000000   0.000000   0.000000   0.000000   0.000000
     12       0.000000   0.000000   0.000000   0.000000   0.000000   0.000000
     13       0.000000   0.000000   0.000000   0.000000   0.000000   0.000000
     14       0.000000   0.000000   0.000000   0.000000   0.000000   0.000000
     15       0.000000   0.000000   0.000000   0.000000   0.000000   0.000000
     16       0.000000   0.000000   0.000000   0.000000   0.000000   0.000000
     17       0.000000   0.000000   0.000000   0.000000   0.000000   0.000000
     18       0.000000   0.000000   0.000000   0.000000   0.000000   0.000000
     19       0.000000   0.000000   0.000000   0.000000   0.000000   0.000000
     20       0.000000   0.000000   0.000000   0.000000   0.000000   0.000000
     21       0.000000   0.000000   0.000000   0.000000   0.000000   0.000000
     22       0.000000   0.000000   0.000000   0.000000   0.000000   0.000000
     23       0.000000   0.000000   0.000000   0.000000   0.000000   0.000000
     24       0.000000   0.000000   0.000000   0.000000   0.000000   0.000000
     25       0.000000   0.000000   0.000000   0.000000   0.000000   0.000000
     26       0.000000   0.000000   0.000000   0.000000   0.000000   0.000000
     27       0.000000   0.000000   0.000000   0.000000   0.000000   0.000000
     28       0.000000   0.000000   0.000000   0.000000   0.000000   0.000000
     29       0.000000   0.000000   0.000000   0.000000   0.000000   0.000000
     30       0.000000   0.000000   0.000000   0.000000   0.000000   0.000000
     31       0.000000   0.000000   0.000000   0.000000   0.000000   0.000000
     32       0.000000   0.000000   0.000000   0.000000   0.000000   0.000000
     33       0.000000   0.000000   0.000000   0.000000   0.000000   0.000000
     34       0.000000   0.000000   0.000000   0.000000   0.000000   0.000000
     35       0.000000   0.000000   0.000000   0.000000   0.000000   0.000000
     36       0.000000   0.000000   0.000000   0.000000   0.000000   0.000000
     37       0.000000   0.000000   0.000000   0.000000   0.000000   0.000000
     38       0.000000   0.000000   0.000000   0.000000   0.000000   0.000000
     39       0.000000   0.000000   0.000000   0.000000   0.000000   0.000000
     40       0.000000   0.000000   0.000000   0.000000   0.000000   0.000000
     41       0.000000   0.000000   0.000000   0.000000   0.000000   0.000000
     42       0.000000   0.000000   0.000000   0.000000   0.000000   0.000000
     43       0.000000   0.000000   0.000000   0.000000   0.000000   0.000000
     44       0.000000   0.000000   0.000000   0.000000   0.000000   0.000000
     45       0.000000   0.000000   0.000000   0.000000   0.000000   0.000000
     46       0.000000   0.000000   0.000000   0.000000   0.000000   0.000000
     47       0.000000   0.000000   0.000000   0.000000   0.000000   0.000000
     48       0.000000   0.000000   0.000000   0.000000   0.000000   0.000000
     49       0.000000   0.000000   0.000000   0.000000   0.000000   0.000000
     50       0.000000   0.000000   0.000000   0.000000   0.000000   0.000000
     51       0.000000   0.000000   0.000000   0.000000   0.000000   0.000000
     52       0.000000   0.000000   0.000000   0.000000   0.000000   0.000000
     53       0.000000   0.000000   0.000000   0.000000   0.000000   0.000000
     54       0.000000   0.000000   0.000000   0.000000   0.000000   0.000000
     55       0.000000   0.000000   0.000000   0.000000   0.000000   0.000000
     56       0.000000   0.000000   0.000000   0.000000   0.000000   0.000000
     57       0.000000   0.000000   0.000000   0.000000   0.000000   0.000000
     58       0.000000   0.000000   0.000000   0.000000   0.000000   0.000000
     59       0.000000   0.000000   0.000000   0.000000   0.000000   0.000000
     60       0.000000   0.000000   0.000000   0.000000   0.000000   0.000000
     61       0.000000   0.000000   0.000000   0.000000   0.000000   0.000000
     62       0.000000   0.000000   0.000000   0.000000   0.000000   0.000000
     63       0.000000   0.000000   0.000000   0.000000   0.000000   0.000000
     64       0.000000   0.000000   0.000000   0.000000   0.000000   0.000000
     65       0.000000   0.000000   0.000000   0.000000   0.000000   0.000000
                  6          7          8          9         10         11    
      0       0.008615  -0.007819  -0.002519  -0.015203  -0.000577  -0.147841
      1      -0.006951   0.006656   0.001694   0.013041   0.000826   0.049743
      2       0.153537  -0.155615  -0.039614  -0.286608  -0.026272   0.006732
      3       0.006348   0.010236  -0.011530  -0.000337   0.000390   0.025802
      4      -0.003864  -0.007676   0.008609   0.000321  -0.000762   0.089184
      5       0.112934   0.196312  -0.219086   0.003316   0.007223   0.006269
      6      -0.000760  -0.005104  -0.025679  -0.000525   0.001775  -0.072694
      7       0.000957   0.003263   0.019469   0.000802  -0.001595   0.142275
      8      -0.021852  -0.107593  -0.524184  -0.011167   0.028216   0.011657
      9      -0.001104  -0.004133   0.015165  -0.019527  -0.001101  -0.018294
     10       0.001181   0.003650  -0.013422   0.013672   0.001521  -0.100285
     11      -0.026651  -0.083540   0.306194  -0.375578  -0.022510   0.000103
     12       0.001369  -0.005277   0.004713   0.005133   0.000386  -0.063194
     13      -0.000928   0.004315  -0.004138  -0.003987   0.000156  -0.055075
     14       0.023469  -0.107330   0.099876   0.110534  -0.000937  -0.001197
     15       0.001882   0.004163  -0.000256   0.008132   0.000577   0.008300
     16      -0.001338  -0.003064  -0.000052  -0.006287  -0.000371  -0.029052
[...]
     48       0.043069   0.033174  -0.005257   0.388797  -0.000376  -0.447371
     49      -0.026718  -0.151185  -0.023013   0.060908  -0.000052  -0.072249
     50      -0.063688  -0.000573   0.027799   0.538333  -0.000493  -0.588059
     51       0.190297  -0.185275   0.230083   0.000316  -0.000170  -0.000005
     52      -0.010464  -0.016683   0.092992  -0.000666  -0.000519   0.000015
     53      -0.005807   0.007090  -0.007378  -0.000054  -0.000020   0.000126
     54       0.205844  -0.034153   0.136146  -0.000694  -0.002422   0.000035
     55       0.627724  -0.212406   0.329713   0.000502  -0.000206  -0.000020
     56       0.017121  -0.009393   0.008233   0.000037   0.000096  -0.000067
     57       0.011928  -0.031138   0.045454  -0.000117  -0.214008  -0.000169
     58       0.050148  -0.027769   0.132698  -0.000216  -0.300326  -0.000229
     59       0.030481  -0.026143   0.073100   0.000489   0.514041   0.000381
     60       0.009915  -0.029129   0.040522  -0.000150  -0.260507   0.000030
     61       0.051553  -0.029192   0.135627  -0.000170  -0.270776   0.000028
     62      -0.027686   0.026515  -0.066989  -0.000472  -0.524975   0.000052
     63      -0.003747   0.009035  -0.014935   0.001268   0.423239   0.000037
     64      -0.068433   0.062094  -0.275260  -0.000031  -0.025496  -0.000003
     65      -0.002357   0.001677  -0.008704  -0.000052  -0.017762  -0.000016
                 60         61         62         63         64         65    
      0      -0.000001   0.000040  -0.000135  -0.000222  -0.000276   0.000086
      1      -0.000001   0.000012  -0.000095   0.000107  -0.000057   0.000018
      2      -0.000002  -0.000002   0.000004   0.000018   0.000012  -0.000004
      3      -0.000001   0.000036  -0.000241  -0.000182  -0.000037   0.000017
      4       0.000001  -0.000013  -0.000230  -0.000028  -0.000093  -0.000037
      5      -0.000019  -0.000002   0.000005   0.000008  -0.000002  -0.000002
      6      -0.000004  -0.000732   0.000127   0.000241   0.003266   0.000726
      7       0.000007  -0.000244   0.000146  -0.000020   0.002254   0.000374
      8      -0.000169   0.000022  -0.000001  -0.000012  -0.000075  -0.000020
      9       0.000003   0.000224   0.000661   0.000015   0.060489   0.038912
     10      -0.000001  -0.000050  -0.000037   0.000087   0.007555  -0.071786
     11       0.000007  -0.000010  -0.000033   0.000002  -0.002179  -0.005376
     12      -0.000003  -0.000151  -0.000351   0.004882   0.000852   0.000030
     13       0.000001  -0.000102   0.000714  -0.000727  -0.000910  -0.000079
     14       0.000065   0.000004   0.000046  -0.000279  -0.000075  -0.000004
     15       0.000001   0.000000   0.004121   0.000252   0.000560  -0.000051
     16      -0.000004   0.000044   0.003189  -0.000436   0.001366   0.000160
     17       0.000022   0.000002  -0.000083  -0.000029   0.000021   0.000011
     18       0.000002  -0.000073   0.000281  -0.001991   0.002667   0.000176
     19       0.000001   0.000228   0.000476  -0.001768  -0.001666   0.000797
     20      -0.000008   0.000013   0.000002   0.000030  -0.000203   0.000015
     21      -0.000006   0.000042  -0.003578   0.000072   0.000630   0.001801
     22       0.000005   0.000215   0.000276  -0.000705   0.001548   0.000693
     23      -0.000062   0.000006   0.000200  -0.000029   0.000070  -0.000092
     24       0.000037   0.000343   0.000532  -0.021923  -0.000885  -0.000006
     25      -0.000078  -0.001408  -0.001819   0.084092  -0.000087  -0.000218
     26       0.000236  -0.000069  -0.000097   0.004401   0.000040  -0.000005
     27       0.000002   0.000004   0.021424   0.000510  -0.002677  -0.000228
     28       0.000003  -0.000104  -0.084962  -0.002061  -0.000358   0.000174
     29       0.000011  -0.000004  -0.004419  -0.000107   0.000130   0.000026
     30      -0.000001  -0.000085  -0.000048  -0.000187   0.000163  -0.000065
     31       0.000002  -0.000011  -0.000126   0.000113  -0.000049   0.000040
     32      -0.000039   0.000001  -0.000014   0.000001  -0.000012   0.000007
     33      -0.000011   0.001513  -0.000370  -0.000302  -0.005959  -0.000927
     34      -0.000016   0.001036  -0.000179   0.000593  -0.001632  -0.000276
     35      -0.000376  -0.000039   0.000011   0.000033   0.000234   0.000033
     36      -0.004689   0.092167  -0.000066   0.001046   0.000157   0.000102
     37       0.003503   0.015469  -0.000005   0.000875   0.000178   0.000080
     38      -0.092198  -0.004230   0.000002  -0.000084   0.000003  -0.000004
     39      -0.000176  -0.005250  -0.005502   0.240440  -0.000258  -0.000557
     40       0.000758   0.015444   0.022396  -0.964937  -0.000756   0.000303
     41      -0.001021   0.000854   0.001151  -0.049800  -0.000032   0.000043
     42       0.000007  -0.000219  -0.260853  -0.006117   0.003198  -0.000757
     43      -0.000032   0.000873   0.959712   0.022042  -0.005255  -0.001665
     44      -0.000034   0.000045   0.050791   0.001168  -0.000346  -0.000069
     45      -0.000139   0.000314  -0.000278   0.000085  -0.000355   0.000167
     46      -0.000048   0.000083  -0.000001  -0.000159   0.000014  -0.000013
     47       0.000237  -0.000490   0.000260  -0.000197   0.000446  -0.000199
     48       0.000153   0.000415  -0.000238   0.000203  -0.000396   0.000172
     49       0.000030   0.000053   0.000007  -0.000137   0.000036  -0.000030
     50       0.000199   0.000497  -0.000125   0.000306  -0.000396   0.000162
     51       0.000003  -0.000073   0.003810   0.000047   0.070943  -0.255951
     52      -0.000014  -0.001114   0.000486   0.000996  -0.332192   0.908299
     53       0.000077  -0.000056  -0.000169   0.000037  -0.020368   0.059123
     54      -0.000036  -0.004116  -0.005264   0.000260  -0.911704  -0.307251
     55       0.000010   0.000056   0.003078  -0.000279   0.216012   0.067920
     56      -0.000240   0.000177   0.000354  -0.000017   0.049666   0.016207
     57      -0.248013  -0.092527   0.000137  -0.006283   0.000878   0.000053
     58      -0.349414  -0.144229   0.000107  -0.006631   0.002457   0.000553
     59       0.562237   0.244429  -0.000172   0.011039  -0.001834  -0.000250
     60       0.290292  -0.105514   0.000150  -0.006661   0.001013   0.000076
     61       0.308422  -0.120547   0.000094  -0.005392   0.002288   0.000524
     62       0.558478  -0.233066   0.000169  -0.010064   0.001867   0.000279
     63       0.013589  -0.902955   0.001326  -0.009397   0.002764   0.000279
     64      -0.000535   0.070857  -0.000228  -0.000622  -0.001808  -0.000335
     65      -0.016608   0.038893  -0.000056   0.000367  -0.000174  -0.000020


-----------
IR SPECTRUM
-----------

 Mode   freq       eps      Int      T**2         TX        TY        TZ
       cm**-1   L/(mol*cm) km/mol    a.u.
----------------------------------------------------------------------------
  7:     81.66   0.000797    4.03  0.003045  ( 0.003050 -0.003707  0.054971)
  8:     97.42   0.000187    0.95  0.000599  ( 0.000212  0.003835 -0.024179)
  9:    164.92   0.000005    0.03  0.000010  ( 0.000264 -0.000509 -0.003084)
 10:    169.20   0.000324    1.64  0.000598  ( 0.000160 -0.001319  0.024420)
 11:    213.24   0.000193    0.98  0.000283  ( 0.013940 -0.008815 -0.003330)
 12:    234.20   0.013368   67.56  0.017812  (-0.005802  0.010142 -0.132950)
 13:    294.70   0.014535   73.46  0.015392  (-0.004791  0.009218 -0.123627)
 14:    349.37   0.000700    3.54  0.000625  (-0.001746  0.001524 -0.024889)
 15:    354.72   0.000590    2.98  0.000519  (-0.021446  0.007115  0.002952)
 16:    367.51   0.001410    7.12  0.001197  ( 0.009053 -0.033390  0.000420)
 17:    410.62   0.000562    2.84  0.000427  ( 0.020389 -0.003058 -0.001423)
 18:    440.77   0.000297    1.50  0.000210  ( 0.000589 -0.000394  0.014490)
 19:    465.41   0.000877    4.43  0.000588  (-0.023597 -0.005534  0.000924)
 20:    531.15   0.002936   14.84  0.001725  ( 0.028950 -0.029685 -0.002366)
 21:    583.67   0.000085    0.43  0.000046  (-0.000788  0.000023 -0.006714)
 22:    654.66   0.004889   24.71  0.002331  (-0.044840  0.017626  0.003040)
 23:    686.57   0.003115   15.74  0.001416  (-0.001191  0.002170 -0.037543)
 24:    695.99   0.002410   12.18  0.001081  ( 0.001123 -0.001271  0.032828)
 25:    727.14   0.000603    3.05  0.000259  ( 0.012868 -0.009612 -0.000991)
 26:    751.97   0.000149    0.75  0.000062  (-0.007270  0.002982  0.000095)
 27:    754.15   0.001132    5.72  0.000468  ( 0.000640 -0.001068  0.021605)
 28:    794.34   0.000400    2.02  0.000157  ( 0.004310  0.011766  0.000190)
 29:    849.47   0.003260   16.47  0.001198  (-0.001699  0.001688 -0.034522)
 30:    865.33   0.004149   20.97  0.001496  (-0.032375 -0.021172  0.000222)
 31:    895.29   0.003347   16.92  0.001167  (-0.002307  0.001545 -0.034044)
 32:    947.50   0.008041   40.64  0.002648  (-0.050754  0.008046  0.002753)
 33:    991.47   0.014112   71.32  0.004442  ( 0.004200 -0.066461 -0.002652)
 34:   1030.00   0.000613    3.10  0.000186  ( 0.000727 -0.000460  0.013603)
 35:   1039.73   0.003019   15.26  0.000906  (-0.026372  0.014383  0.001939)
 36:   1072.74   0.003476   17.57  0.001011  (-0.031343 -0.005000  0.001949)
 37:   1086.89   0.019311   97.59  0.005544  (-0.073738 -0.009343  0.004447)
 38:   1139.15   0.002053   10.37  0.000562  (-0.001978  0.000373 -0.023627)
 39:   1147.26   0.006418   32.43  0.001746  ( 0.032055 -0.026680 -0.002526)
 40:   1197.88   0.000005    0.02  0.000001  (-0.000978  0.000462  0.000139)
 41:   1235.29   0.014333   72.43  0.003621  (-0.031406 -0.051327 -0.000056)
 42:   1256.58   0.020123  101.69  0.004997  (-0.067161 -0.021917  0.002550)
 43:   1298.46   0.093437  472.19  0.022456  ( 0.144181 -0.039859 -0.008893)
 44:   1326.16   0.016887   85.34  0.003974  ( 0.062949 -0.000035 -0.003335)
 45:   1371.31   0.009038   45.67  0.002057  (-0.019329  0.040951  0.002470)
 46:   1426.16   0.006600   33.36  0.001444  ( 0.037966  0.000023 -0.001674)
 47:   1440.22   0.013056   65.98  0.002829  (-0.052444  0.008336  0.003028)
 48:   1441.78   0.008436   42.63  0.001826  (-0.034403  0.025211  0.002583)
 49:   1455.09   0.001785    9.02  0.000383  (-0.002042  0.000982 -0.019434)
 50:   1481.19   0.004953   25.03  0.001044  ( 0.028913 -0.014273 -0.001971)
 51:   1525.16   0.022484  113.62  0.004600  (-0.063611 -0.023406  0.002499)
 52:   1545.38   0.039310  198.65  0.007938  ( 0.086265  0.021996 -0.003521)
 53:   1587.89   0.054644  276.15  0.010739  ( 0.060086  0.084431  0.000353)
 54:   1648.66   0.029771  150.45  0.005635  (-0.039123  0.063906  0.004532)
 55:   1709.14   0.008656   43.74  0.001580  (-0.035779 -0.017284  0.001230)
 56:   1725.15   0.059003  298.18  0.010673  (-0.091561 -0.047761  0.002935)
 57:   3009.55   0.032246  162.96  0.003344  (-0.056606 -0.010657  0.005089)
 58:   3037.46   0.000618    3.12  0.000064  (-0.000372  0.007951  0.000402)
 59:   3062.87   0.009481   47.91  0.000966  ( 0.004479 -0.000746  0.030746)
 60:   3114.36   0.001363    6.89  0.000137  (-0.000669  0.000530 -0.011654)
 61:   3159.46   0.001405    7.10  0.000139  ( 0.011578 -0.002062 -0.000676)
 62:   3200.56   0.000727    3.67  0.000071  ( 0.001856 -0.008200 -0.000410)
 63:   3232.57   0.000275    1.39  0.000027  ( 0.003139  0.004087  0.000019)
 64:   3451.63   0.025910  130.94  0.002343  (-0.048206  0.003663  0.002302)
 65:   3698.07   0.013820   69.84  0.001166  (-0.012835  0.031579  0.002057)

* The epsilon (eps) is given for a Dirac delta lineshape.
** The dipole moment derivative (T) already includes vibrational overlap.

The first frequency considered to be a vibration is 7
The total number of vibrations considered is 59


--------------------------
THERMOCHEMISTRY AT 298.15K
--------------------------

Temperature         ... 298.15 K
Pressure            ... 1.00 atm
Total Mass          ... 179.18 AMU

Throughout the following assumptions are being made:
  (1) The electronic state is orbitally nondegenerate
  (2) There are no thermally accessible electronically excited states
  (3) Hindered rotations indicated by low frequency modes are not
      treated as such but are treated as vibrations and this may
      cause some error
  (4) All equations used are the standard statistical mechanics
      equations for an ideal gas
  (5) All vibrations are strictly harmonic

freq.      81.66  E(vib)   ...       0.48 
freq.      97.42  E(vib)   ...       0.46 
freq.     164.92  E(vib)   ...       0.39 
freq.     169.20  E(vib)   ...       0.38 
freq.     213.24  E(vib)   ...       0.34 
freq.     234.20  E(vib)   ...       0.32 
freq.     294.70  E(vib)   ...       0.27 
freq.     349.37  E(vib)   ...       0.23 
freq.     354.72  E(vib)   ...       0.22 
freq.     367.51  E(vib)   ...       0.21 
freq.     410.62  E(vib)   ...       0.19 
freq.     440.77  E(vib)   ...       0.17 
freq.     465.41  E(vib)   ...       0.16 
freq.     531.15  E(vib)   ...       0.13 
freq.     583.67  E(vib)   ...       0.11 
freq.     654.66  E(vib)   ...       0.08 
freq.     686.57  E(vib)   ...       0.07 
freq.     695.99  E(vib)   ...       0.07 
freq.     727.14  E(vib)   ...       0.06 
freq.     751.97  E(vib)   ...       0.06 
freq.     754.15  E(vib)   ...       0.06 
freq.     794.34  E(vib)   ...       0.05 
freq.     849.47  E(vib)   ...       0.04 
freq.     865.33  E(vib)   ...       0.04 
freq.     895.29  E(vib)   ...       0.03 
freq.     947.50  E(vib)   ...       0.03 
freq.     991.47  E(vib)   ...       0.02 
freq.    1030.00  E(vib)   ...       0.02 
freq.    1039.73  E(vib)   ...       0.02 
freq.    1072.74  E(vib)   ...       0.02 
freq.    1086.89  E(vib)   ...       0.02 
freq.    1139.15  E(vib)   ...       0.01 
freq.    1147.26  E(vib)   ...       0.01 
freq.    1197.88  E(vib)   ...       0.01 
freq.    1235.29  E(vib)   ...       0.01 
freq.    1256.58  E(vib)   ...       0.01 
freq.    1298.46  E(vib)   ...       0.01 
freq.    1326.16  E(vib)   ...       0.01 
freq.    1371.31  E(vib)   ...       0.01 
freq.    1426.16  E(vib)   ...       0.00 
freq.    1440.22  E(vib)   ...       0.00 
freq.    1441.78  E(vib)   ...       0.00 
freq.    1455.09  E(vib)   ...       0.00 
freq.    1481.19  E(vib)   ...       0.00 
freq.    1525.16  E(vib)   ...       0.00 
freq.    1545.38  E(vib)   ...       0.00 
freq.    1587.89  E(vib)   ...       0.00 
freq.    1648.66  E(vib)   ...       0.00 
freq.    1709.14  E(vib)   ...       0.00 
freq.    1725.15  E(vib)   ...       0.00 
freq.    3009.55  E(vib)   ...       0.00 
freq.    3037.46  E(vib)   ...       0.00 
freq.    3062.87  E(vib)   ...       0.00 
freq.    3114.36  E(vib)   ...       0.00 
freq.    3159.46  E(vib)   ...       0.00 
freq.    3200.56  E(vib)   ...       0.00 
freq.    3232.57  E(vib)   ...       0.00 
freq.    3451.63  E(vib)   ...       0.00 
freq.    3698.07  E(vib)   ...       0.00 

------------
INNER ENERGY
------------

The inner energy is: U= E(el) + E(ZPE) + E(vib) + E(rot) + E(trans)
    E(el)   - is the total energy from the electronic structure calculation
              = E(kin-el) + E(nuc-el) + E(el-el) + E(nuc-nuc)
    E(ZPE)  - the the zero temperature vibrational energy from the frequency calculation
    E(vib)  - the the finite temperature correction to E(ZPE) due to population
              of excited vibrational states
    E(rot)  - is the rotational thermal energy
    E(trans)- is the translational thermal energy

Summary of contributions to the inner energy U:
Electronic energy                ...   -628.33191589 Eh
Zero point energy                ...      0.16978325 Eh     106.54 kcal/mol
Thermal vibrational correction   ...      0.00775036 Eh       4.86 kcal/mol
Thermal rotational correction    ...      0.00141627 Eh       0.89 kcal/mol
Thermal translational correction ...      0.00141627 Eh       0.89 kcal/mol
-----------------------------------------------------------------------
Total thermal energy                   -628.15154973 Eh


Summary of corrections to the electronic energy:
(perhaps to be used in another calculation)
Total thermal correction                  0.01058291 Eh       6.64 kcal/mol
Non-thermal (ZPE) correction              0.16978325 Eh     106.54 kcal/mol
-----------------------------------------------------------------------
Total correction                          0.18036616 Eh     113.18 kcal/mol


--------
ENTHALPY
--------

The enthalpy is H = U + kB*T
                kB is Boltzmann's constant
Total free energy                 ...   -628.15154973 Eh 
Thermal Enthalpy correction       ...      0.00094421 Eh       0.59 kcal/mol
-----------------------------------------------------------------------
Total Enthalpy                    ...   -628.15060552 Eh


Note: Only C1 symmetry has been detected, increase convergence thresholds 
      if your molecule has a higher symmetry. Symmetry factor of 1.0 is   
      used for the rotational entropy correction. 
 

Note: Rotational entropy computed according to Herzberg 
Infrared and Raman Spectra, Chapter V,1, Van Nostrand Reinhold, 1945 
Point Group:  C1, Symmetry Number:   1  
Rotational constants in cm-1:     0.056876     0.018168     0.013843 

Vibrational entropy computed according to the QRRHO of S. Grimme
Chem.Eur.J. 2012 18 9955


-------
ENTROPY
-------

The entropy contributions are T*S = T*(S(el)+S(vib)+S(rot)+S(trans))
     S(el)   - electronic entropy
     S(vib)  - vibrational entropy
     S(rot)  - rotational entropy
     S(trans)- translational entropy
The entropies will be listed as multiplied by the temperature to get
units of energy

Electronic entropy                ...      0.00000000 Eh      0.00 kcal/mol
Vibrational entropy               ...      0.01285919 Eh      8.07 kcal/mol
Rotational entropy                ...      0.01477696 Eh      9.27 kcal/mol
Translational entropy             ...      0.01969720 Eh     12.36 kcal/mol
-----------------------------------------------------------------------
Final entropy term                ...      0.04733335 Eh     29.70 kcal/mol

In case the symmetry of your molecule has not been determined correctly
or in case you have a reason to use a different symmetry number we print 
out the resulting rotational entropy values for sn=1,12 :
 --------------------------------------------------------
|  sn= 1 | S(rot)=       0.01477696 Eh      9.27 kcal/mol|
|  sn= 2 | S(rot)=       0.01412250 Eh      8.86 kcal/mol|
|  sn= 3 | S(rot)=       0.01373967 Eh      8.62 kcal/mol|
|  sn= 4 | S(rot)=       0.01346805 Eh      8.45 kcal/mol|
|  sn= 5 | S(rot)=       0.01325736 Eh      8.32 kcal/mol|
|  sn= 6 | S(rot)=       0.01308522 Eh      8.21 kcal/mol|
|  sn= 7 | S(rot)=       0.01293967 Eh      8.12 kcal/mol|
|  sn= 8 | S(rot)=       0.01281359 Eh      8.04 kcal/mol|
|  sn= 9 | S(rot)=       0.01270238 Eh      7.97 kcal/mol|
|  sn=10 | S(rot)=       0.01260290 Eh      7.91 kcal/mol|
|  sn=11 | S(rot)=       0.01251291 Eh      7.85 kcal/mol|
|  sn=12 | S(rot)=       0.01243076 Eh      7.80 kcal/mol|
 --------------------------------------------------------


-------------------
GIBBS FREE ENERGY
-------------------

The Gibbs free energy is G = H - T*S

Total enthalpy                    ...   -628.15060552 Eh 
Total entropy correction          ...     -0.04733335 Eh    -29.70 kcal/mol
-----------------------------------------------------------------------
Final Gibbs free energy         ...   -628.19793887 Eh

For completeness - the Gibbs free energy minus the electronic energy
G-E(el)                           ...      0.13397702 Eh     84.07 kcal/mol


Timings for individual modules:

Sum of individual times         ...      108.650 sec (=   1.811 min)
GTO integral calculation        ...        0.608 sec (=   0.010 min)   0.6 %
SCF iterations                  ...       14.863 sec (=   0.248 min)  13.7 %
Analytical frequency calculation...       93.179 sec (=   1.553 min)  85.8 %
                             ****ORCA TERMINATED NORMALLY****
TOTAL RUN TIME: 0 days 0 hours 1 minutes 49 seconds 86 msec
