
                                 *****************
                                 * O   R   C   A *
                                 *****************

                                            #,                                       
                                            ###                                      
                                            ####                                     
                                            #####                                    
                                            ######                                   
                                           ########,                                 
                                     ,,################,,,,,                         
                               ,,#################################,,                 
                          ,,##########################################,,             
                       ,#########################################, ''#####,          
                    ,#############################################,,   '####,        
                  ,##################################################,,,,####,       
                ,###########''''           ''''###############################       
              ,#####''   ,,,,##########,,,,          '''####'''          '####       
            ,##' ,,,,###########################,,,                        '##       
           ' ,,###''''                  '''############,,,                           
         ,,##''                                '''############,,,,        ,,,,,,###''
      ,#''                                            '''#######################'''  
     '                                                          ''''####''''         
             ,#######,   #######,   ,#######,      ##                                
            ,#'     '#,  ##    ##  ,#'     '#,    #''#        ######   ,####,        
            ##       ##  ##   ,#'  ##            #'  '#       #        #'  '#        
            ##       ##  #######   ##           ,######,      #####,   #    #        
            '#,     ,#'  ##    ##  '#,     ,#' ,#      #,         ##   #,  ,#        
             '#######'   ##     ##  '#######'  #'      '#     #####' # '####'        



                  #######################################################
                  #                        -***-                        #
                  #          Department of theory and spectroscopy      #
                  #    Directorship and core code : Frank Neese         #
                  #        Max Planck Institute fuer Kohlenforschung    #
                  #                Kaiser Wilhelm Platz 1               #
                  #                 D-45470 Muelheim/Ruhr               #
                  #                      Germany                        #
                  #                                                     #
                  #                  All rights reserved                #
                  #                        -***-                        #
                  #######################################################


                         Program Version 5.0.3 -  RELEASE  -


 With contributions from (in alphabetic order):
   Daniel Aravena         : Magnetic Suceptibility
   Michael Atanasov       : Ab Initio Ligand Field Theory (pilot matlab implementation)
   Alexander A. Auer      : GIAO ZORA, VPT2 properties, NMR spectrum
   Ute Becker             : Parallelization
   Giovanni Bistoni       : ED, misc. LED, open-shell LED, HFLD
   Martin Brehm           : Molecular dynamics
   Dmytro Bykov           : SCF Hessian
   Vijay G. Chilkuri      : MRCI spin determinant printing, contributions to CSF-ICE
   Dipayan Datta          : RHF DLPNO-CCSD density
   Achintya Kumar Dutta   : EOM-CC, STEOM-CC
   Dmitry Ganyushin       : Spin-Orbit,Spin-Spin,Magnetic field MRCI
   Miquel Garcia          : C-PCM and meta-GGA Hessian, CC/C-PCM, Gaussian charge scheme
   Yang Guo               : DLPNO-NEVPT2, F12-NEVPT2, CIM, IAO-localization
   Andreas Hansen         : Spin unrestricted coupled pair/coupled cluster methods
   Benjamin Helmich-Paris : MC-RPA, TRAH-SCF, COSX integrals
   Lee Huntington         : MR-EOM, pCC
   Robert Izsak           : Overlap fitted RIJCOSX, COSX-SCS-MP3, EOM
   Marcus Kettner         : VPT2
   Christian Kollmar      : KDIIS, OOCD, Brueckner-CCSD(T), CCSD density, CASPT2, CASPT2-K
   Simone Kossmann        : Meta GGA functionals, TD-DFT gradient, OOMP2, MP2 Hessian
   Martin Krupicka        : Initial AUTO-CI
   Lucas Lang             : DCDCAS
   Marvin Lechner         : AUTO-CI (C++ implementation), FIC-MRCC
   Dagmar Lenk            : GEPOL surface, SMD
   Dimitrios Liakos       : Extrapolation schemes; Compound Job, initial MDCI parallelization
   Dimitrios Manganas     : Further ROCIS development; embedding schemes
   Dimitrios Pantazis     : SARC Basis sets
   Anastasios Papadopoulos: AUTO-CI, single reference methods and gradients
   Taras Petrenko         : DFT Hessian,TD-DFT gradient, ASA, ECA, R-Raman, ABS, FL, XAS/XES, NRVS
   Peter Pinski           : DLPNO-MP2, DLPNO-MP2 Gradient
   Christoph Reimann      : Effective Core Potentials
   Marius Retegan         : Local ZFS, SOC
   Christoph Riplinger    : Optimizer, TS searches, QM/MM, DLPNO-CCSD(T), (RO)-DLPNO pert. Triples
   Tobias Risthaus        : Range-separated hybrids, TD-DFT gradient, RPA, STAB
   Michael Roemelt        : Original ROCIS implementation
   Masaaki Saitow         : Open-shell DLPNO-CCSD energy and density
   Barbara Sandhoefer     : DKH picture change effects
   Avijit Sen             : IP-ROCIS
   Kantharuban Sivalingam : CASSCF convergence, NEVPT2, FIC-MRCI
   Bernardo de Souza      : ESD, SOC TD-DFT
   Georgi Stoychev        : AutoAux, RI-MP2 NMR, DLPNO-MP2 response
   Willem Van den Heuvel  : Paramagnetic NMR
   Boris Wezisla          : Elementary symmetry handling
   Frank Wennmohs         : Technical directorship


 We gratefully acknowledge several colleagues who have allowed us to
 interface, adapt or use parts of their codes:
   Stefan Grimme, W. Hujo, H. Kruse, P. Pracht,  : VdW corrections, initial TS optimization,
                  C. Bannwarth, S. Ehlert          DFT functionals, gCP, sTDA/sTD-DF
   Ed Valeev, F. Pavosevic, A. Kumar             : LibInt (2-el integral package), F12 methods
   Garnet Chan, S. Sharma, J. Yang, R. Olivares  : DMRG
   Ulf Ekstrom                                   : XCFun DFT Library
   Mihaly Kallay                                 : mrcc  (arbitrary order and MRCC methods)
   Jiri Pittner, Ondrej Demel                    : Mk-CCSD
   Frank Weinhold                                : gennbo (NPA and NBO analysis)
   Christopher J. Cramer and Donald G. Truhlar   : smd solvation model
   Lars Goerigk                                  : TD-DFT with DH, B97 family of functionals
   V. Asgeirsson, H. Jonsson                     : NEB implementation
   FAccTs GmbH                                   : IRC, NEB, NEB-TS, DLPNO-Multilevel, CI-OPT
                                                   MM, QMMM, 2- and 3-layer-ONIOM, Crystal-QMMM,
                                                   LR-CPCM, SF, NACMEs, symmetry and pop. for TD-DFT,
                                                   nearIR, NL-DFT gradient (VV10), updates on ESD,
                                                   ML-optimized integration grids
   S Lehtola, MJT Oliveira, MAL Marques          : LibXC Library
   Liviu Ungur et al                             : ANISO software


 Your calculation uses the libint2 library for the computation of 2-el integrals
 For citations please refer to: http://libint.valeyev.net

 Your ORCA version has been built with support for libXC version: 5.1.0
 For citations please refer to: https://tddft.org/programs/libxc/

 This ORCA versions uses:
   CBLAS   interface :  Fast vector & matrix operations
   LAPACKE interface :  Fast linear algebra routines
   SCALAPACK package :  Parallel linear algebra routines
   Shared memory     :  Shared parallel matrices


================================================================================

----- Orbital basis set information -----
Your calculation utilizes the basis: def2-SVP
   F. Weigend and R. Ahlrichs, Phys. Chem. Chem. Phys. 7, 3297 (2005).

----- AuxJ basis set information -----
Your calculation utilizes the auxiliary basis: def2/J
   F. Weigend, Phys. Chem. Chem. Phys. 8, 1057 (2006).

================================================================================
                                        WARNINGS
                       Please study these warnings very carefully!
================================================================================


WARNING: Geometry Optimization
  ===> : Switching off AutoStart
         For restart on a previous wavefunction, please use MOREAD

INFO   : the flag for use of the SHARK integral package has been found!

================================================================================
                                       INPUT FILE
================================================================================
NAME = /Users/armando/tmp/pubchem_120000_opt_freq.inp
|  1> %pal nprocs 8
|  2> end
|  3> !b3lyp/g opt freq
|  4> *xyz 0 1 
|  5> O    2.3491    1.5230   -0.1177
|  6> O    2.9372   -0.8076    0.0556
|  7> O   -3.3345   -0.1557   -0.5374
|  8> N   -1.7160   -2.1985    0.1502
|  9> C    1.2544    0.7168   -0.0610
| 10> C    1.5903   -0.6142    0.0378
| 11> C   -1.0532    0.1527   -0.0231
| 12> C   -0.7100   -1.2070    0.0778
| 13> C   -0.0607    1.1332   -0.0941
| 14> C    0.6296   -1.6019    0.1091
| 15> C    3.4118    0.5507   -0.0443
| 16> C   -2.4482    0.5750   -0.0562
| 17> C   -2.8498    1.9334    0.5033
| 18> H   -0.2885    2.1894   -0.1860
| 19> H    0.9122   -2.6467    0.1871
| 20> H    4.0323    0.6405   -0.9434
| 21> H    4.0299    0.7719    0.8334
| 22> H   -1.4532   -3.1725    0.2253
| 23> H   -2.6944   -1.9468    0.1517
| 24> H   -2.7744    2.6906   -0.2808
| 25> H   -2.2231    2.2036    1.3575
| 26> H   -3.8831    1.8802    0.8598
| 27> *
| 28> 
| 29>                          ****END OF INPUT****
================================================================================

                       *****************************
                       * Geometry Optimization Run *
                       *****************************

Geometry optimization settings:
Update method            Update   .... BFGS
Choice of coordinates    CoordSys .... Z-matrix Internals
Initial Hessian          InHess   .... Almoef's Model

Convergence Tolerances:
Energy Change            TolE     ....  5.0000e-06 Eh
Max. Gradient            TolMAXG  ....  3.0000e-04 Eh/bohr
RMS Gradient             TolRMSG  ....  1.0000e-04 Eh/bohr
Max. Displacement        TolMAXD  ....  4.0000e-03 bohr
RMS Displacement         TolRMSD  ....  2.0000e-03 bohr
Strict Convergence                ....  False
------------------------------------------------------------------------------
                        ORCA OPTIMIZATION COORDINATE SETUP
------------------------------------------------------------------------------

The optimization will be done in new redundant internal coordinates
Making redundant internal coordinates   ...  (new redundants) done
Evaluating the initial hessian          ...  (Almloef) done
Evaluating the coordinates              ...  done
Calculating the B-matrix                .... done
Calculating the G-matrix                .... done
Diagonalizing the G-matrix              .... done
Small eigenvalue found = 1.652e-02
The first mode is                       ....   49
The number of degrees of freedom        ....   60

    -----------------------------------------------------------------
                    Redundant Internal Coordinates


    -----------------------------------------------------------------
         Definition                    Initial Value    Approx d2E/dq
    -----------------------------------------------------------------
      1. B(C   4,O   0)                  1.3607         0.623161   
      2. B(C   5,C   4)                  1.3763         0.657091   
      3. B(C   5,O   1)                  1.3608         0.622893   
      4. B(C   7,C   6)                  1.4060         0.589196   
      5. B(C   7,N   3)                  1.4143         0.511737   
      6. B(C   8,C   6)                  1.3970         0.609040   
      7. B(C   8,C   4)                  1.3798         0.648545   
      8. B(C   9,C   7)                  1.3969         0.609059   
      9. B(C   9,C   5)                  1.3797         0.648884   
     10. B(C  10,O   1)                  1.4423         0.461794   
     11. B(C  10,O   0)                  1.4423         0.461863   
     12. B(C  11,C   6)                  1.4579         0.486874   
     13. B(C  11,O   2)                  1.2454         0.951890   
     14. B(C  12,C  11)                  1.5230         0.383285   
     15. B(H  13,C   8)                  1.0844         0.367601   
     16. B(H  14,C   9)                  1.0852         0.366571   
     17. B(H  15,C  10)                  1.0961         0.352103   
     18. B(H  16,C  10)                  1.0961         0.352180   
     19. B(H  17,N   3)                  1.0116         0.430137   
     20. B(H  18,N   3)                  1.0103         0.432298   
     21. B(H  19,C  12)                  1.0926         0.356632   
     22. B(H  20,C  12)                  1.0934         0.355693   
     23. B(H  21,C  12)                  1.0944         0.354374   
     24. A(C   4,O   0,C  10)          101.0252         0.406893   
     25. A(C   5,O   1,C  10)          101.0078         0.406852   
     26. A(C   7,N   3,H  17)          119.6028         0.346858   
     27. A(H  17,N   3,H  18)          119.4298         0.302922   
     28. A(C   7,N   3,H  18)          120.9489         0.347151   
     29. A(O   0,C   4,C   5)          112.3108         0.436156   
     30. A(C   5,C   4,C   8)          121.7476         0.442214   
     31. A(O   0,C   4,C   8)          125.9416         0.435129   
     32. A(C   4,C   5,C   9)          121.7418         0.442256   
     33. A(O   1,C   5,C   4)          112.3304         0.436122   
     34. A(O   1,C   5,C   9)          125.9278         0.435136   
     35. A(C   7,C   6,C   8)          120.5976         0.428735   
     36. A(C   8,C   6,C  11)          118.3828         0.414379   
     37. A(C   7,C   6,C  11)          121.0196         0.411948   
     38. A(N   3,C   7,C   6)          120.5315         0.412922   
     39. A(C   6,C   7,C   9)          120.6022         0.428737   
     40. A(N   3,C   7,C   9)          118.8663         0.415362   
     41. A(C   4,C   8,C   6)          117.6526         0.436195   
     42. A(C   6,C   8,H  13)          122.5949         0.353075   
     43. A(C   4,C   8,H  13)          119.7474         0.356858   
     44. A(C   5,C   9,C   7)          117.6583         0.436239   
     45. A(C   7,C   9,H  14)          121.5687         0.352909   
     46. A(C   5,C   9,H  14)          120.7730         0.356720   
     47. A(O   0,C  10,O   1)          113.3257         0.386046   
     48. A(H  15,C  10,H  16)          108.7282         0.288808   
     49. A(O   1,C  10,H  16)          108.6728         0.332625   
     50. A(O   0,C  10,H  16)          108.6765         0.332633   
     51. A(O   1,C  10,H  15)          108.6779         0.332613   
     52. A(O   0,C  10,H  15)          108.6714         0.332621   
     53. A(C   6,C  11,C  12)          120.1541         0.382000   
     54. A(O   2,C  11,C  12)          118.5283         0.427206   
     55. A(O   2,C  11,C   6)          121.3176         0.446024   
     56. A(H  20,C  12,H  21)          107.3805         0.289549   
     57. A(H  19,C  12,H  21)          109.4278         0.289668   
     58. A(C  11,C  12,H  21)          108.9830         0.324832   
     59. A(H  19,C  12,H  20)          110.4775         0.289837   
     60. A(C  11,C  12,H  20)          110.8722         0.325031   
     61. A(C  11,C  12,H  19)          109.6501         0.325172   
     62. D(C   5,C   4,O   0,C  10)      0.0304         0.028512   
     63. D(C   8,C   4,O   0,C  10)    179.9926         0.028512   
     64. D(O   1,C   5,C   4,C   8)   -179.9503         0.030109   
     65. D(C   9,C   5,C   4,O   0)    179.9555         0.030109   
     66. D(C   9,C   5,C   4,C   8)     -0.0085         0.030109   
     67. D(O   1,C   5,C   4,O   0)      0.0136         0.030109   
     68. D(C   4,C   5,O   1,C  10)     -0.0501         0.028486   
     69. D(C   9,C   5,O   1,C  10)   -179.9891         0.028486   
     70. D(N   3,C   7,C   6,C  11)     -0.0254         0.023887   
     71. D(C   9,C   7,N   3,H  18)    178.5737         0.020736   
     72. D(C   9,C   7,C   6,C   8)      0.0112         0.023887   
     73. D(N   3,C   7,C   6,C   8)    179.9715         0.023887   
     74. D(C   9,C   7,N   3,H  17)      0.1433         0.020736   
     75. D(C   6,C   7,N   3,H  18)     -1.3874         0.020736   
     76. D(C   6,C   7,N   3,H  17)   -179.8177         0.020736   
     77. D(C   9,C   7,C   6,C  11)   -179.9858         0.023887   
     78. D(H  13,C   8,C   6,C  11)     -0.8522         0.025613   
     79. D(C   4,C   8,C   6,C  11)    179.9745         0.025613   
     80. D(C   4,C   8,C   6,C   7)     -0.0225         0.025613   
     81. D(H  13,C   8,C   4,C   5)   -179.1765         0.029277   
     82. D(C   6,C   8,C   4,C   5)      0.0214         0.029277   
     83. D(H  13,C   8,C   6,C   7)    179.1508         0.025613   
     84. D(C   6,C   8,C   4,O   0)   -179.9375         0.029277   
     85. D(H  13,C   8,C   4,O   0)      0.8647         0.029277   
     86. D(C   5,C   9,C   7,C   6)      0.0022         0.025615   
     87. D(C   5,C   9,C   7,N   3)   -179.9588         0.025615   
     88. D(H  14,C   9,C   5,C   4)   -179.9747         0.029309   
     89. D(H  14,C   9,C   5,O   1)     -0.0411         0.029309   
     90. D(C   7,C   9,C   5,C   4)     -0.0037         0.029309   
     91. D(H  14,C   9,C   7,N   3)      0.0119         0.025615   
     92. D(C   7,C   9,C   5,O   1)    179.9299         0.029309   
     93. D(H  14,C   9,C   7,C   6)    179.9730         0.025615   
     94. D(H  16,C  10,O   1,C   5)    120.9906         0.016801   
     95. D(H  15,C  10,O   1,C   5)   -120.8448         0.016801   
     96. D(O   0,C  10,O   1,C   5)      0.0714         0.016801   
     97. D(H  16,C  10,O   0,C   4)   -120.9812         0.016807   
     98. D(H  15,C  10,O   0,C   4)    120.8558         0.016807   
     99. D(O   1,C  10,O   0,C   4)     -0.0641         0.016807   
    100. D(C  12,C  11,C   6,C   8)    -30.0036         0.016140   
    101. D(C  12,C  11,C   6,C   7)    149.9934         0.016140   
    102. D(O   2,C  11,C   6,C   8)    149.9695         0.016140   
    103. D(O   2,C  11,C   6,C   7)    -30.0335         0.016140   
    104. D(H  21,C  12,C  11,C   6)   -151.5034         0.010951   
    105. D(H  21,C  12,C  11,O   2)     28.5228         0.010951   
    106. D(H  20,C  12,C  11,C   6)    -33.5177         0.010951   
    107. D(H  20,C  12,C  11,O   2)    146.5085         0.010951   
    108. D(H  19,C  12,C  11,C   6)     88.7391         0.010951   
    109. D(H  19,C  12,C  11,O   2)    -91.2347         0.010951   
    -----------------------------------------------------------------

Number of atoms                         .... 22
Number of degrees of freedom            .... 109

         *************************************************************
         *                GEOMETRY OPTIMIZATION CYCLE   1            *
         *************************************************************
---------------------------------
CARTESIAN COORDINATES (ANGSTROEM)
---------------------------------
  O      2.349100    1.523000   -0.117700
  O      2.937200   -0.807600    0.055600
  O     -3.334500   -0.155700   -0.537400
  N     -1.716000   -2.198500    0.150200
  C      1.254400    0.716800   -0.061000
  C      1.590300   -0.614200    0.037800
  C     -1.053200    0.152700   -0.023100
  C     -0.710000   -1.207000    0.077800
  C     -0.060700    1.133200   -0.094100
  C      0.629600   -1.601900    0.109100
  C      3.411800    0.550700   -0.044300
  C     -2.448200    0.575000   -0.056200
  C     -2.849800    1.933400    0.503300
  H     -0.288500    2.189400   -0.186000
  H      0.912200   -2.646700    0.187100
  H      4.032300    0.640500   -0.943400
  H      4.029900    0.771900    0.833400
  H     -1.453200   -3.172500    0.225300
  H     -2.694400   -1.946800    0.151700
  H     -2.774400    2.690600   -0.280800
  H     -2.223100    2.203600    1.357500
  H     -3.883100    1.880200    0.859800

----------------------------
CARTESIAN COORDINATES (A.U.)
----------------------------
  NO LB      ZA    FRAG     MASS         X           Y           Z
   0 O     8.0000    0    15.999    4.439156    2.878053   -0.222421
   1 O     8.0000    0    15.999    5.550504   -1.526143    0.105069
   2 O     8.0000    0    15.999   -6.301292   -0.294230   -1.015539
   3 N     7.0000    0    14.007   -3.242770   -4.154563    0.283837
   4 C     6.0000    0    12.011    2.370472    1.354556   -0.115273
   5 C     6.0000    0    12.011    3.005231   -1.160670    0.071432
   6 C     6.0000    0    12.011   -1.990260    0.288561   -0.043653
   7 C     6.0000    0    12.011   -1.341706   -2.280899    0.147021
   8 C     6.0000    0    12.011   -0.114706    2.141438   -0.177823
   9 C     6.0000    0    12.011    1.189772   -3.027152    0.206169
  10 C     6.0000    0    12.011    6.447368    1.040672   -0.083715
  11 C     6.0000    0    12.011   -4.626428    1.086593   -0.106203
  12 C     6.0000    0    12.011   -5.385342    3.653597    0.951099
  13 H     1.0000    0     1.008   -0.545186    4.137366   -0.351489
  14 H     1.0000    0     1.008    1.723808   -5.001538    0.353568
  15 H     1.0000    0     1.008    7.619943    1.210370   -1.782768
  16 H     1.0000    0     1.008    7.615407    1.458680    1.574898
  17 H     1.0000    0     1.008   -2.746150   -5.995156    0.425755
  18 H     1.0000    0     1.008   -5.091678   -3.678919    0.286671
  19 H     1.0000    0     1.008   -5.242856    5.084497   -0.530635
  20 H     1.0000    0     1.008   -4.201050    4.164201    2.565303
  21 H     1.0000    0     1.008   -7.337996    3.553063    1.624787

--------------------------------
INTERNAL COORDINATES (ANGSTROEM)
--------------------------------
 O      0   0   0     0.000000000000     0.00000000     0.00000000
 O      1   0   0     2.409894366980     0.00000000     0.00000000
 O      1   2   0     5.941169139151    88.01024129     0.00000000
 N      3   1   2     2.695434631001    67.77105678    10.04137321
 C      1   2   3     1.360713570154    67.68754966     5.09994208
 C      2   1   3     1.360830632371    67.67121677   354.90783388
 C      3   1   2     2.358801547396    12.16095374    40.87297516
 C      7   3   4     1.405969821867    97.19735205     7.01721751
 C      5   1   2     1.379845128991   125.94160204   179.95446223
 C      6   2   1     1.379702674492   125.92780653   180.05334048
 C      1   2   3     1.442250373548    33.33766285   185.16797856
 C      3   1   2     1.245392958066    29.08660788   133.69370797
 C     12   3   1     1.523014566575   118.52834583   156.49023941
 H      9   5   1     1.084387795025   119.74739513     0.86470135
 H     10   6   2     1.085151510159   120.77295612   359.95893221
 H     11   1   2     1.096113634620   108.67135545   120.91990852
 H     11   1   2     1.096053985897   108.67648071   239.08294619
 H      4   3   1     1.011622385082   154.77137850   203.97731888
 H      4   3   1     1.010258234314    39.64920145   162.94686053
 H     13  12   3     1.092634344143   109.65013723   268.76525466
 H     13  12   3     1.093351988154   110.87219323   146.50847371
 H     13  12   3     1.094363458820   108.98303874    28.52281963

---------------------------
INTERNAL COORDINATES (A.U.)
---------------------------
 O      0   0   0     0.000000000000     0.00000000     0.00000000
 O      1   0   0     4.554040365271     0.00000000     0.00000000
 O      1   2   0    11.227182588300    88.01024129     0.00000000
 N      3   1   2     5.093633264479    67.77105678    10.04137321
 C      1   2   3     2.571375994300    67.68754966     5.09994208
 C      2   1   3     2.571597209833    67.67121677   354.90783388
 C      3   1   2     4.457488928849    12.16095374    40.87297516
 C      7   3   4     2.656897915886    97.19735205     7.01721751
 C      5   1   2     2.607529401018   125.94160204   179.95446223
 C      6   2   1     2.607260201028   125.92780653   180.05334048
 C      1   2   3     2.725458222552    33.33766285   185.16797856
 C      3   1   2     2.353451619859    29.08660788   133.69370797
 C     12   3   1     2.878080428800   118.52834583   156.49023941
 H      9   5   1     2.049195955565   119.74739513     0.86470135
 H     10   6   2     2.050639168011   120.77295612   359.95893221
 H     11   1   2     2.071354581089   108.67135545   120.91990852
 H     11   1   2     2.071241861338   108.67648071   239.08294619
 H      4   3   1     1.911689258750   154.77137850   203.97731888
 H      4   3   1     1.909111387393    39.64920145   162.94686053
 H     13  12   3     2.064779674946   109.65013723   268.76525466
 H     13  12   3     2.066135825589   110.87219323   146.50847371
 H     13  12   3     2.068047228140   108.98303874    28.52281963

---------------------
BASIS SET INFORMATION
---------------------
There are 4 groups of distinct atoms

 Group   1 Type O   : 7s4p1d contracted to 3s2p1d pattern {511/31/1}
 Group   2 Type N   : 7s4p1d contracted to 3s2p1d pattern {511/31/1}
 Group   3 Type C   : 7s4p1d contracted to 3s2p1d pattern {511/31/1}
 Group   4 Type H   : 4s1p contracted to 2s1p pattern {31/1}

Atom   0O    basis set group =>   1
Atom   1O    basis set group =>   1
Atom   2O    basis set group =>   1
Atom   3N    basis set group =>   2
Atom   4C    basis set group =>   3
Atom   5C    basis set group =>   3
Atom   6C    basis set group =>   3
Atom   7C    basis set group =>   3
Atom   8C    basis set group =>   3
Atom   9C    basis set group =>   3
Atom  10C    basis set group =>   3
Atom  11C    basis set group =>   3
Atom  12C    basis set group =>   3
Atom  13H    basis set group =>   4
Atom  14H    basis set group =>   4
Atom  15H    basis set group =>   4
Atom  16H    basis set group =>   4
Atom  17H    basis set group =>   4
Atom  18H    basis set group =>   4
Atom  19H    basis set group =>   4
Atom  20H    basis set group =>   4
Atom  21H    basis set group =>   4
---------------------------------
AUXILIARY/J BASIS SET INFORMATION
---------------------------------
There are 4 groups of distinct atoms

 Group   1 Type O   : 12s5p4d2f1g contracted to 6s4p3d1f1g pattern {711111/2111/211/2/1}
 Group   2 Type N   : 12s5p4d2f1g contracted to 6s4p3d1f1g pattern {711111/2111/211/2/1}
 Group   3 Type C   : 12s5p4d2f1g contracted to 6s4p3d1f1g pattern {711111/2111/211/2/1}
 Group   4 Type H   : 5s2p1d contracted to 3s1p1d pattern {311/2/1}

Atom   0O    basis set group =>   1
Atom   1O    basis set group =>   1
Atom   2O    basis set group =>   1
Atom   3N    basis set group =>   2
Atom   4C    basis set group =>   3
Atom   5C    basis set group =>   3
Atom   6C    basis set group =>   3
Atom   7C    basis set group =>   3
Atom   8C    basis set group =>   3
Atom   9C    basis set group =>   3
Atom  10C    basis set group =>   3
Atom  11C    basis set group =>   3
Atom  12C    basis set group =>   3
Atom  13H    basis set group =>   4
Atom  14H    basis set group =>   4
Atom  15H    basis set group =>   4
Atom  16H    basis set group =>   4
Atom  17H    basis set group =>   4
Atom  18H    basis set group =>   4
Atom  19H    basis set group =>   4
Atom  20H    basis set group =>   4
Atom  21H    basis set group =>   4


           ************************************************************
           *        Program running with 8 parallel MPI-processes     *
           *              working on a common directory               *
           ************************************************************
------------------------------------------------------------------------------
                           ORCA GTO INTEGRAL CALCULATION
                           -- RI-GTO INTEGRALS CHOSEN --
------------------------------------------------------------------------------
------------------------------------------------------------------------------
                   ___                                                        
                  /   \      - P O W E R E D   B Y -                         
                 /     \                                                     
                 |  |  |   _    _      __       _____    __    __             
                 |  |  |  | |  | |    /  \     |  _  \  |  |  /  |          
                  \  \/   | |  | |   /    \    | | | |  |  | /  /          
                 / \  \   | |__| |  /  /\  \   | |_| |  |  |/  /          
                |  |  |   |  __  | /  /__\  \  |    /   |      \           
                |  |  |   | |  | | |   __   |  |    \   |  |\   \          
                \     /   | |  | | |  |  |  |  | |\  \  |  | \   \       
                 \___/    |_|  |_| |__|  |__|  |_| \__\ |__|  \__/        
                                                                              
                      - O R C A' S   B I G   F R I E N D -                    
                                      &                                       
                       - I N T E G R A L  F E E D E R -                       
                                                                              
 v1 FN, 2020, v2 2021                                                         
------------------------------------------------------------------------------


Reading SHARK input file /Users/armando/tmp/pubchem_120000_opt_freq.SHARKINP.tmp ... ok
----------------------
SHARK INTEGRAL PACKAGE
----------------------

Number of atoms                             ...     22
Number of basis functions                   ...    227
Number of shells                            ...    105
Maximum angular momentum                    ...      2
Integral batch strategy                     ... SHARK/LIBINT Hybrid
RI-J (if used) integral strategy            ... SPLIT-RIJ (Revised 2003 algorithm where possible)
Printlevel                                  ...      1
Contraction scheme used                     ... SEGMENTED contraction
Coulomb Range Separation                    ... NOT USED
Exchange Range Separation                   ... NOT USED
Finite Nucleus Model                        ... NOT USED
Auxiliary Coulomb fitting basis             ... AVAILABLE
   # of basis functions in Aux-J            ...    736
   # of shells in Aux-J                     ...    240
   Maximum angular momentum in Aux-J        ...      4
Auxiliary J/K fitting basis                 ... NOT available
Auxiliary Correlation fitting basis         ... NOT available
Auxiliary 'external' fitting basis          ... NOT available
Integral threshold                          ...     2.500000e-11
Primitive cut-off                           ...     2.500000e-12
Primitive pair pre-selection threshold      ...     2.500000e-12

Calculating pre-screening integrals         ... done (  0.0 sec) Dimension = 105
Organizing shell pair data                  ... done (  0.0 sec)
Shell pair information
Total number of shell pairs                 ...      5565
Shell pairs after pre-screening             ...      4789
Total number of primitive shell pairs       ...     20497
Primitive shell pairs kept                  ...     12211
          la=0 lb=0:   1433 shell pairs
          la=1 lb=0:   1738 shell pairs
          la=1 lb=1:    546 shell pairs
          la=2 lb=0:    617 shell pairs
          la=2 lb=1:    380 shell pairs
          la=2 lb=2:     75 shell pairs

Calculating one electron integrals          ... done (  0.0 sec)
Calculating RI/J V-Matrix + Cholesky decomp.... done (  0.1 sec)
Calculating Nuclear repulsion               ... done (  0.0 sec) ENN=    781.478023373484 Eh

SHARK setup successfully completed in   0.3 seconds

Maximum memory used throughout the entire GTOINT-calculation: 12.9 MB


           ************************************************************
           *        Program running with 8 parallel MPI-processes     *
           *              working on a common directory               *
           ************************************************************
-------------------------------------------------------------------------------
                                 ORCA SCF
-------------------------------------------------------------------------------

------------
SCF SETTINGS
------------
Hamiltonian:
 Density Functional     Method          .... DFT(GTOs)
 Exchange Functional    Exchange        .... B88
   X-Alpha parameter    XAlpha          ....  0.666667
   Becke's b parameter  XBeta           ....  0.004200
 Correlation Functional Correlation     .... LYP
 LDA part of GGA corr.  LDAOpt          .... VWN-3
 Gradients option       PostSCFGGA      .... off
 Hybrid DFT is turned on
   Fraction HF Exchange ScalHFX         ....  0.200000
   Scaling of DF-GGA-X  ScalDFX         ....  0.720000
   Scaling of DF-GGA-C  ScalDFC         ....  0.810000
   Scaling of DF-LDA-C  ScalLDAC        ....  1.000000
   Perturbative correction              ....  0.000000
   Density functional embedding theory  .... OFF
   NL short-range parameter             ....  4.800000
 RI-approximation to the Coulomb term is turned on
   Number of AuxJ basis functions       .... 736
   RIJ-COSX (HFX calculated with COS-X)).... on


General Settings:
 Integral files         IntName         .... /Users/armando/tmp/pubchem_120000_opt_freq
 Hartree-Fock type      HFTyp           .... RHF
 Total Charge           Charge          ....    0
 Multiplicity           Mult            ....    1
 Number of Electrons    NEL             ....   94
 Basis Dimension        Dim             ....  227
 Nuclear Repulsion      ENuc            ....    781.4780233735 Eh

Convergence Acceleration:
 DIIS                   CNVDIIS         .... on
   Start iteration      DIISMaxIt       ....    12
   Startup error        DIISStart       ....  0.200000
   # of expansion vecs  DIISMaxEq       ....     5
   Bias factor          DIISBfac        ....   1.050
   Max. coefficient     DIISMaxC        ....  10.000
 Trust-Rad. Augm. Hess. CNVTRAH         .... auto
   Auto Start mean grad. ratio tolernc. ....  1.125000
   Auto Start start iteration           ....    20
   Auto Start num. interpolation iter.  ....    10
   Max. Number of Micro iterations      ....    16
   Max. Number of Macro iterations      .... Maxiter - #DIIS iter
   Number of Davidson start vectors     ....     2
   Converg. threshold I  (grad. norm)   ....   1.000e-05
   Converg. threshold II (energy diff.) ....   1.000e-08
   Grad. Scal. Fac. for Micro threshold ....   0.100
   Minimum threshold for Micro iter.    ....   0.010
   NR start threshold (gradient norm)   ....   0.001
   Initial trust radius                 ....   0.400
   Minimum AH scaling param. (alpha)    ....   1.000
   Maximum AH scaling param. (alpha)    .... 1000.000
   Orbital update algorithm             .... Taylor
   White noise on init. David. guess    .... on
   Maximum white noise                  ....   0.010
   Quad. conv. algorithm                .... NR
 SOSCF                  CNVSOSCF        .... on
   Start iteration      SOSCFMaxIt      ....   150
   Startup grad/error   SOSCFStart      ....  0.003300
 Level Shifting         CNVShift        .... on
   Level shift para.    LevelShift      ....    0.2500
   Turn off err/grad.   ShiftErr        ....    0.0010
 Zerner damping         CNVZerner       .... off
 Static damping         CNVDamp         .... on
   Fraction old density DampFac         ....    0.7000
   Max. Damping (<1)    DampMax         ....    0.9800
   Min. Damping (>=0)   DampMin         ....    0.0000
   Turn off err/grad.   DampErr         ....    0.1000
 Fernandez-Rico         CNVRico         .... off

SCF Procedure:
 Maximum # iterations   MaxIter         ....   125
 SCF integral mode      SCFMode         .... Direct
   Integral package                     .... SHARK and LIBINT hybrid scheme
 Reset frequency        DirectResetFreq ....    20
 Integral Threshold     Thresh          ....  2.500e-11 Eh
 Primitive CutOff       TCut            ....  2.500e-12 Eh

Convergence Tolerance:
 Convergence Check Mode ConvCheckMode   .... Total+1el-Energy
 Convergence forced     ConvForced      .... 0
 Energy Change          TolE            ....  1.000e-08 Eh
 1-El. energy change                    ....  1.000e-05 Eh
 Orbital Gradient       TolG            ....  1.000e-05
 Orbital Rotation angle TolX            ....  1.000e-05
 DIIS Error             TolErr          ....  5.000e-07


Diagonalization of the overlap matrix:
Smallest eigenvalue                        ... 1.867e-04
Time for diagonalization                   ...    0.004 sec
Threshold for overlap eigenvalues          ... 1.000e-08
Number of eigenvalues below threshold      ... 0
Time for construction of square roots      ...    0.014 sec
Total time needed                          ...    0.018 sec

Time for model grid setup =    0.142 sec

------------------------------
INITIAL GUESS: MODEL POTENTIAL
------------------------------
Loading Hartree-Fock densities                     ... done
Calculating cut-offs                               ... done
Initializing the effective Hamiltonian             ... done
Setting up the integral package (SHARK)            ... done
Starting the Coulomb interaction                   ... done (   0.0 sec)
Reading the grid                                   ... done
Mapping shells                                     ... done
Starting the XC term evaluation                    ... done (   0.1 sec)
  promolecular density results
     # of electrons  =     93.997252969
     EX              =    -80.171361824
     EC              =     -3.249148410
     EX+EC           =    -83.420510233
Transforming the Hamiltonian                       ... done (   0.0 sec)
Diagonalizing the Hamiltonian                      ... done (   0.0 sec)
Back transforming the eigenvectors                 ... done (   0.0 sec)
Now organizing SCF variables                       ... done
                      ------------------
                      INITIAL GUESS DONE (   0.3 sec)
                      ------------------
-------------------
DFT GRID GENERATION
-------------------

General Integration Accuracy     IntAcc      ... 4.388
Radial Grid Type                 RadialGrid  ... OptM3 with GC (2021)
Angular Grid (max. ang.)         AngularGrid ... 4 (Lebedev-302)
Angular grid pruning method      GridPruning ... 4 (adaptive)
Weight generation scheme         WeightScheme... Becke
Basis function cutoff            BFCut       ... 1.0000e-11
Integration weight cutoff        WCut        ... 1.0000e-14
Angular grids for H and He will be reduced by one unit
Partially contracted basis set               ... off
Rotationally invariant grid construction     ... off

Total number of grid points                  ...   106952
Total number of batches                      ...     1682
Average number of points per batch           ...       63
Average number of grid points per atom       ...     4861
Time for grid setup =    0.554 sec

--------------------
COSX GRID GENERATION
--------------------

GRIDX 1
-------
General Integration Accuracy     IntAcc      ... 3.816
Radial Grid Type                 RadialGrid  ... OptM3 with GC (2021)
Angular Grid (max. ang.)         AngularGrid ... 1 (Lebedev-50)
Angular grid pruning method      GridPruning ... 4 (adaptive)
Weight generation scheme         WeightScheme... Becke
Basis function cutoff            BFCut       ... 1.0000e-11
Integration weight cutoff        WCut        ... 1.0000e-14
Angular grids for H and He will be reduced by one unit
Partially contracted basis set               ... on
Rotationally invariant grid construction     ... off

Total number of grid points                  ...    13640
Total number of batches                      ...      223
Average number of points per batch           ...       61
Average number of grid points per atom       ...      620
UseSFitting                                  ... on

GRIDX 2
-------
General Integration Accuracy     IntAcc      ... 4.020
Radial Grid Type                 RadialGrid  ... OptM3 with GC (2021)
Angular Grid (max. ang.)         AngularGrid ... 2 (Lebedev-110)
Angular grid pruning method      GridPruning ... 4 (adaptive)
Weight generation scheme         WeightScheme... Becke
Basis function cutoff            BFCut       ... 1.0000e-11
Integration weight cutoff        WCut        ... 1.0000e-14
Angular grids for H and He will be reduced by one unit
Partially contracted basis set               ... on
Rotationally invariant grid construction     ... off

Total number of grid points                  ...    30018
Total number of batches                      ...      479
Average number of points per batch           ...       62
Average number of grid points per atom       ...     1364
UseSFitting                                  ... on

GRIDX 3
-------
General Integration Accuracy     IntAcc      ... 4.338
Radial Grid Type                 RadialGrid  ... OptM3 with GC (2021)
Angular Grid (max. ang.)         AngularGrid ... 3 (Lebedev-194)
Angular grid pruning method      GridPruning ... 4 (adaptive)
Weight generation scheme         WeightScheme... Becke
Basis function cutoff            BFCut       ... 1.0000e-11
Integration weight cutoff        WCut        ... 1.0000e-14
Angular grids for H and He will be reduced by one unit
Partially contracted basis set               ... on
Rotationally invariant grid construction     ... off

Total number of grid points                  ...    65881
Total number of batches                      ...     1039
Average number of points per batch           ...       63
Average number of grid points per atom       ...     2995
UseSFitting                                  ... on

Time for X-Grid setup             =    0.552 sec

--------------
SCF ITERATIONS
--------------
ITER       Energy         Delta-E        Max-DP      RMS-DP      [F,P]     Damp
               ***  Starting incremental Fock matrix formation  ***
  0   -627.9919829483   0.000000000000 0.09398495  0.00259670  0.2539384 0.7000
  1   -628.1411614432  -0.149178494821 0.05473667  0.00171959  0.1049122 0.7000
                               ***Turning on DIIS***
  2   -628.1985155000  -0.057354056794 0.07560759  0.00284349  0.0387012 0.0000
  3   -628.2903162610  -0.091800761027 0.04434080  0.00114979  0.0578032 0.0000
  4   -628.3095507561  -0.019234495086 0.01164574  0.00035069  0.0131674 0.0000
  5   -628.3110059678  -0.001455211712 0.00520818  0.00012966  0.0064355 0.0000
                      *** Initiating the SOSCF procedure ***
                           *** Shutting down DIIS ***
                      *** Re-Reading the Fockian *** 
                      *** Removing any level shift *** 
ITER      Energy       Delta-E        Grad      Rot      Max-DP    RMS-DP
  6   -628.31111351  -0.0001075424  0.000471  0.000471  0.001450  0.000046
               *** Restarting incremental Fock matrix formation ***
  7   -628.31119939  -0.0000858768  0.000134  0.000927  0.001234  0.000033
  8   -628.31120057  -0.0000011832  0.000153  0.000569  0.000536  0.000014
  9   -628.31120147  -0.0000008971  0.000098  0.000335  0.000440  0.000010
 10   -628.31120158  -0.0000001114  0.000041  0.000090  0.000141  0.000004
 11   -628.31120167  -0.0000000907  0.000022  0.000085  0.000079  0.000003
 12   -628.31120168  -0.0000000077  0.000013  0.000021  0.000057  0.000001
 13   -628.31120168  -0.0000000002  0.000008  0.000026  0.000032  0.000001
 14   -628.31120168  -0.0000000061  0.000006  0.000011  0.000012  0.000000
 15   -628.31120168   0.0000000035  0.000003  0.000010  0.000011  0.000000
                  ***Gradient check signals convergence***
              ***Rediagonalizing the Fockian in SOSCF/NRSCF***

               *****************************************************
               *                     SUCCESS                       *
               *           SCF CONVERGED AFTER  16 CYCLES          *
               *****************************************************

Old exchange energy                            =    -16.220496613 Eh
New exchange energy                            =    -16.220484086 Eh
Exchange energy change after final integration =      0.000012527 Eh
Total energy after final integration           =   -628.311189148 Eh
Final COS-X integration done in                =     1.829 sec

----------------
TOTAL SCF ENERGY
----------------

Total Energy       :         -628.31118915 Eh          -17097.21666 eV

Components:
Nuclear Repulsion  :          781.47802337 Eh           21265.09811 eV
Electronic Energy  :        -1409.78921252 Eh          -38362.31478 eV
One Electron Energy:        -2405.47363147 Eh          -65456.26524 eV
Two Electron Energy:          995.68441895 Eh           27093.95047 eV
Max COSX asymmetry :            0.00000247 Eh               0.00007 eV

Virial components:
Potential Energy   :        -1250.88355276 Eh          -34038.27194 eV
Kinetic Energy     :          622.57236362 Eh           16941.05528 eV
Virial Ratio       :            2.00921793


DFT components:
N(Alpha)           :       47.000025380149 electrons
N(Beta)            :       47.000025380149 electrons
N(Total)           :       94.000050760298 electrons
E(X)               :      -64.515520510821 Eh       
E(C)               :       -4.171320314571 Eh       
E(XC)              :      -68.686840825392 Eh       
DFET-embed. en.    :        0.000000000000 Eh       

---------------
SCF CONVERGENCE
---------------

  Last Energy change         ...    5.0273e-09  Tolerance :   1.0000e-08
  Last MAX-Density change    ...    7.5495e-15  Tolerance :   1.0000e-07
  Last RMS-Density change    ...    6.7083e-17  Tolerance :   5.0000e-09
  Last Orbital Gradient      ...    1.1043e-06  Tolerance :   1.0000e-05
  Last Orbital Rotation      ...    2.3306e-06  Tolerance :   1.0000e-05

             **** THE GBW FILE WAS UPDATED (/Users/armando/tmp/pubchem_120000_opt_freq.gbw) ****
             **** DENSITY /Users/armando/tmp/pubchem_120000_opt_freq.scfp WAS UPDATED ****
             **** ENERGY FILE WAS UPDATED (/Users/armando/tmp/pubchem_120000_opt_freq.en.tmp) ****
             **** THE GBW FILE WAS UPDATED (/Users/armando/tmp/pubchem_120000_opt_freq.gbw) ****
             **** DENSITY /Users/armando/tmp/pubchem_120000_opt_freq.scfp WAS UPDATED ****
----------------
ORBITAL ENERGIES
----------------

  NO   OCC          E(Eh)            E(eV) 
   0   2.0000     -19.192677      -522.2593 
   1   2.0000     -19.182238      -521.9752 
   2   2.0000     -19.108781      -519.9764 
   3   2.0000     -14.327093      -389.8600 
   4   2.0000     -10.309971      -280.5486 
   5   2.0000     -10.266370      -279.3621 
   6   2.0000     -10.256747      -279.1003 
   7   2.0000     -10.241455      -278.6841 
   8   2.0000     -10.241129      -278.6753 
   9   2.0000     -10.199675      -277.5473 
  10   2.0000     -10.192239      -277.3449 
  11   2.0000     -10.187004      -277.2025 
  12   2.0000     -10.186740      -277.1953 
  13   2.0000      -1.128025       -30.6951 
  14   2.0000      -1.041694       -28.3459 
  15   2.0000      -1.007403       -27.4128 
  16   2.0000      -0.901237       -24.5239 
  17   2.0000      -0.845510       -23.0075 
  18   2.0000      -0.775970       -21.1152 
  19   2.0000      -0.741972       -20.1901 
  20   2.0000      -0.724839       -19.7239 
  21   2.0000      -0.680724       -18.5234 
  22   2.0000      -0.643171       -17.5016 
  23   2.0000      -0.626581       -17.0501 
  24   2.0000      -0.567205       -15.4344 
  25   2.0000      -0.547513       -14.8986 
  26   2.0000      -0.526530       -14.3276 
  27   2.0000      -0.524467       -14.2715 
  28   2.0000      -0.502790       -13.6816 
  29   2.0000      -0.469846       -12.7852 
  30   2.0000      -0.456385       -12.4189 
  31   2.0000      -0.448635       -12.2080 
  32   2.0000      -0.442998       -12.0546 
  33   2.0000      -0.438986       -11.9454 
  34   2.0000      -0.427450       -11.6315 
  35   2.0000      -0.411108       -11.1868 
  36   2.0000      -0.401084       -10.9140 
  37   2.0000      -0.399758       -10.8780 
  38   2.0000      -0.389099       -10.5879 
  39   2.0000      -0.382809       -10.4168 
  40   2.0000      -0.372326       -10.1315 
  41   2.0000      -0.360761        -9.8168 
  42   2.0000      -0.339516        -9.2387 
  43   2.0000      -0.280055        -7.6207 
  44   2.0000      -0.248071        -6.7504 
  45   2.0000      -0.238920        -6.5014 
  46   2.0000      -0.192433        -5.2364 
  47   0.0000      -0.048188        -1.3113 
  48   0.0000       0.002948         0.0802 
  49   0.0000       0.044118         1.2005 
  50   0.0000       0.065295         1.7768 
  51   0.0000       0.067878         1.8471 
  52   0.0000       0.071284         1.9397 
  53   0.0000       0.095408         2.5962 
  54   0.0000       0.113127         3.0783 
  55   0.0000       0.113188         3.0800 
  56   0.0000       0.119952         3.2641 
  57   0.0000       0.126991         3.4556 
  58   0.0000       0.128421         3.4945 
  59   0.0000       0.145297         3.9537 
  60   0.0000       0.156825         4.2674 
  61   0.0000       0.170506         4.6397 
  62   0.0000       0.177240         4.8230 
  63   0.0000       0.215579         5.8662 
  64   0.0000       0.250701         6.8219 
  65   0.0000       0.263283         7.1643 
  66   0.0000       0.277465         7.5502 
  67   0.0000       0.285913         7.7801 
  68   0.0000       0.289893         7.8884 
  69   0.0000       0.313280         8.5248 
  70   0.0000       0.332018         9.0347 
  71   0.0000       0.350363         9.5339 
  72   0.0000       0.375269        10.2116 
  73   0.0000       0.397074        10.8049 
  74   0.0000       0.402108        10.9419 
  75   0.0000       0.428088        11.6489 
  76   0.0000       0.431474        11.7410 
  77   0.0000       0.445470        12.1218 
  78   0.0000       0.451467        12.2850 
  79   0.0000       0.475104        12.9282 
  80   0.0000       0.490922        13.3587 
  81   0.0000       0.496312        13.5053 
  82   0.0000       0.509072        13.8525 
  83   0.0000       0.515271        14.0212 
  84   0.0000       0.522766        14.2252 
  85   0.0000       0.533793        14.5252 
  86   0.0000       0.555034        15.1032 
  87   0.0000       0.575654        15.6643 
  88   0.0000       0.578526        15.7425 
  89   0.0000       0.582881        15.8610 
  90   0.0000       0.601304        16.3623 
  91   0.0000       0.608240        16.5510 
  92   0.0000       0.609242        16.5783 
  93   0.0000       0.632042        17.1987 
  94   0.0000       0.639596        17.4043 
  95   0.0000       0.646523        17.5928 
  96   0.0000       0.659672        17.9506 
  97   0.0000       0.664578        18.0841 
  98   0.0000       0.670918        18.2566 
  99   0.0000       0.680465        18.5164 
 100   0.0000       0.685150        18.6439 
 101   0.0000       0.703701        19.1487 
 102   0.0000       0.707851        19.2616 
 103   0.0000       0.724866        19.7246 
 104   0.0000       0.747107        20.3298 
 105   0.0000       0.755357        20.5543 
 106   0.0000       0.767134        20.8748 
 107   0.0000       0.793446        21.5908 
 108   0.0000       0.805408        21.9163 
 109   0.0000       0.808334        21.9959 
 110   0.0000       0.831908        22.6374 
 111   0.0000       0.858625        23.3644 
 112   0.0000       0.869514        23.6607 
 113   0.0000       0.892322        24.2813 
 114   0.0000       0.934425        25.4270 
 115   0.0000       0.943905        25.6850 
 116   0.0000       0.967455        26.3258 
 117   0.0000       0.998640        27.1744 
 118   0.0000       1.037620        28.2351 
 119   0.0000       1.039374        28.2828 
 120   0.0000       1.067311        29.0430 
 121   0.0000       1.076903        29.3040 
 122   0.0000       1.086426        29.5632 
 123   0.0000       1.124359        30.5954 
 124   0.0000       1.146317        31.1929 
 125   0.0000       1.178644        32.0725 
 126   0.0000       1.209883        32.9226 
 127   0.0000       1.233453        33.5639 
 128   0.0000       1.246179        33.9103 
 129   0.0000       1.257297        34.2128 
 130   0.0000       1.270693        34.5773 
 131   0.0000       1.312858        35.7247 
 132   0.0000       1.318276        35.8721 
 133   0.0000       1.337244        36.3883 
 134   0.0000       1.363730        37.1090 
 135   0.0000       1.371637        37.3241 
 136   0.0000       1.425818        38.7985 
 137   0.0000       1.456541        39.6345 
 138   0.0000       1.469273        39.9810 
 139   0.0000       1.474285        40.1173 
 140   0.0000       1.498716        40.7821 
 141   0.0000       1.514078        41.2002 
 142   0.0000       1.534104        41.7451 
 143   0.0000       1.578384        42.9500 
 144   0.0000       1.615021        43.9469 
 145   0.0000       1.635685        44.5093 
 146   0.0000       1.644135        44.7392 
 147   0.0000       1.657288        45.0971 
 148   0.0000       1.667511        45.3753 
 149   0.0000       1.691317        46.0231 
 150   0.0000       1.713723        46.6328 
 151   0.0000       1.726975        46.9934 
 152   0.0000       1.739806        47.3425 
 153   0.0000       1.745782        47.5051 
 154   0.0000       1.749971        47.6191 
 155   0.0000       1.761606        47.9357 
 156   0.0000       1.781350        48.4730 
 157   0.0000       1.790403        48.7193 
 158   0.0000       1.800547        48.9954 
 159   0.0000       1.821642        49.5694 
 160   0.0000       1.825937        49.6863 
 161   0.0000       1.827291        49.7231 
 162   0.0000       1.839507        50.0555 
 163   0.0000       1.867255        50.8106 
 164   0.0000       1.870106        50.8882 
 165   0.0000       1.888995        51.4022 
 166   0.0000       1.900809        51.7236 
 167   0.0000       1.920841        52.2687 
 168   0.0000       1.942737        52.8646 
 169   0.0000       1.945053        52.9276 
 170   0.0000       1.990508        54.1645 
 171   0.0000       2.003677        54.5228 
 172   0.0000       2.036927        55.4276 
 173   0.0000       2.075991        56.4906 
 174   0.0000       2.118977        57.6603 
 175   0.0000       2.146869        58.4193 
 176   0.0000       2.152423        58.5704 
 177   0.0000       2.158855        58.7454 
 178   0.0000       2.169664        59.0396 
 179   0.0000       2.212483        60.2047 
 180   0.0000       2.240988        60.9804 
 181   0.0000       2.246289        61.1246 
 182   0.0000       2.262215        61.5580 
 183   0.0000       2.271387        61.8076 
 184   0.0000       2.305771        62.7432 
 185   0.0000       2.322433        63.1966 
 186   0.0000       2.342065        63.7308 
 187   0.0000       2.363967        64.3268 
 188   0.0000       2.395891        65.1955 
 189   0.0000       2.414566        65.7037 
 190   0.0000       2.470308        67.2205 
 191   0.0000       2.500196        68.0338 
 192   0.0000       2.542708        69.1906 
 193   0.0000       2.562746        69.7359 
 194   0.0000       2.589245        70.4569 
 195   0.0000       2.634336        71.6839 
 196   0.0000       2.661502        72.4231 
 197   0.0000       2.683551        73.0231 
 198   0.0000       2.690381        73.2090 
 199   0.0000       2.696208        73.3676 
 200   0.0000       2.724754        74.1443 
 201   0.0000       2.727544        74.2203 
 202   0.0000       2.734274        74.4034 
 203   0.0000       2.768531        75.3356 
 204   0.0000       2.810180        76.4689 
 205   0.0000       2.821089        76.7657 
 206   0.0000       2.826882        76.9234 
 207   0.0000       2.879286        78.3494 
 208   0.0000       2.920471        79.4700 
 209   0.0000       2.941400        80.0396 
 210   0.0000       2.965921        80.7068 
 211   0.0000       2.995772        81.5191 
 212   0.0000       3.022803        82.2546 
 213   0.0000       3.027878        82.3927 
 214   0.0000       3.085224        83.9532 
 215   0.0000       3.120514        84.9135 
 216   0.0000       3.130724        85.1913 
 217   0.0000       3.155477        85.8649 
 218   0.0000       3.193699        86.9050 
 219   0.0000       3.217795        87.5606 
 220   0.0000       3.315100        90.2085 
 221   0.0000       3.376179        91.8705 
 222   0.0000       3.437444        93.5376 
 223   0.0000       3.508986        95.4844 
 224   0.0000       3.542068        96.3846 
 225   0.0000       3.626641        98.6859 
 226   0.0000       3.772956       102.6674 

                    ********************************
                    * MULLIKEN POPULATION ANALYSIS *
                    ********************************

-----------------------
MULLIKEN ATOMIC CHARGES
-----------------------
   0 O :   -0.306294
   1 O :   -0.298395
   2 O :   -0.271174
   3 N :   -0.089241
   4 C :    0.169747
   5 C :    0.180849
   6 C :    0.058417
   7 C :    0.082465
   8 C :   -0.125820
   9 C :   -0.130689
  10 C :    0.402915
  11 C :   -0.027877
  12 C :    0.066134
  13 H :   -0.030524
  14 H :   -0.048250
  15 H :    0.027633
  16 H :    0.027077
  17 H :    0.099709
  18 H :    0.123718
  19 H :    0.038679
  20 H :    0.022029
  21 H :    0.028891
Sum of atomic charges:   -0.0000000

--------------------------------
MULLIKEN REDUCED ORBITAL CHARGES
--------------------------------
  0 O s       :     3.757423  s :     3.757423
      pz      :     1.822619  p :     4.530722
      px      :     1.203241
      py      :     1.504861
      dz2     :     0.002369  d :     0.018150
      dxz     :     0.002299
      dyz     :     0.002539
      dx2y2   :     0.002884
      dxy     :     0.008060
  1 O s       :     3.759473  s :     3.759473
      pz      :     1.801316  p :     4.520766
      px      :     1.298508
      py      :     1.420942
      dz2     :     0.002358  d :     0.018155
      dxz     :     0.002739
      dyz     :     0.002046
      dx2y2   :     0.007012
      dxy     :     0.003999
  2 O s       :     3.769292  s :     3.769292
      pz      :     1.360526  p :     4.485802
      px      :     1.571136
      py      :     1.554140
      dz2     :     0.002480  d :     0.016080
      dxz     :     0.003671
      dyz     :     0.002270
      dx2y2   :     0.003019
      dxy     :     0.004640
  3 N s       :     3.294174  s :     3.294174
      pz      :     1.740433  p :     3.781393
      px      :     1.037626
      py      :     1.003334
      dz2     :     0.001685  d :     0.013674
      dxz     :     0.001202
      dyz     :     0.001127
      dx2y2   :     0.005387
      dxy     :     0.004273
  4 C s       :     2.954764  s :     2.954764
      pz      :     1.079471  p :     2.800242
      px      :     0.800647
      py      :     0.920124
      dz2     :     0.005781  d :     0.075248
      dxz     :     0.015098
      dyz     :     0.009520
      dx2y2   :     0.021928
      dxy     :     0.022921
  5 C s       :     2.983022  s :     2.983022
      pz      :     1.002578  p :     2.758397
      px      :     0.769381
      py      :     0.986439
      dz2     :     0.005784  d :     0.077732
      dxz     :     0.018068
      dyz     :     0.008897
      dx2y2   :     0.025655
      dxy     :     0.019328
  6 C s       :     3.063179  s :     3.063179
      pz      :     1.113088  p :     2.840185
      px      :     0.824185
      py      :     0.902912
      dz2     :     0.003321  d :     0.038220
      dxz     :     0.004282
      dyz     :     0.006271
      dx2y2   :     0.012744
      dxy     :     0.011601
  7 C s       :     3.004458  s :     3.004458
      pz      :     0.937177  p :     2.852541
      px      :     0.897792
      py      :     1.017573
      dz2     :     0.004435  d :     0.060536
      dxz     :     0.011826
      dyz     :     0.011147
      dx2y2   :     0.015154
      dxy     :     0.017975
  8 C s       :     3.379883  s :     3.379883
      pz      :     1.011395  p :     2.710362
      px      :     0.952788
      py      :     0.746179
      dz2     :     0.002819  d :     0.035576
      dxz     :     0.008447
      dyz     :     0.002916
      dx2y2   :     0.012074
      dxy     :     0.009320
  9 C s       :     3.384072  s :     3.384072
      pz      :     1.109869  p :     2.714684
      px      :     0.887478
      py      :     0.717336
      dz2     :     0.002834  d :     0.031933
      dxz     :     0.005655
      dyz     :     0.003197
      dx2y2   :     0.009372
      dxy     :     0.010876
 10 C s       :     2.965174  s :     2.965174
      pz      :     1.071041  p :     2.548028
      px      :     0.828210
      py      :     0.648777
      dz2     :     0.012338  d :     0.083882
      dxz     :     0.017435
      dyz     :     0.011654
      dx2y2   :     0.019138
      dxy     :     0.023318
 11 C s       :     3.189567  s :     3.189567
      pz      :     0.818872  p :     2.746646
      px      :     0.953251
      py      :     0.974524
      dz2     :     0.009170  d :     0.091664
      dxz     :     0.016518
      dyz     :     0.012558
      dx2y2   :     0.033182
      dxy     :     0.020236
 12 C s       :     2.926894  s :     2.926894
      pz      :     0.979568  p :     2.981724
      px      :     1.006896
      py      :     0.995260
      dz2     :     0.003117  d :     0.025249
      dxz     :     0.005526
      dyz     :     0.007079
      dx2y2   :     0.006837
      dxy     :     0.002691
 13 H s       :     1.007127  s :     1.007127
      pz      :     0.005153  p :     0.023397
      px      :     0.003868
      py      :     0.014375
 14 H s       :     1.024705  s :     1.024705
      pz      :     0.005588  p :     0.023545
      px      :     0.004060
      py      :     0.013897
 15 H s       :     0.952035  s :     0.952035
      pz      :     0.011841  p :     0.020332
      px      :     0.006464
      py      :     0.002027
 16 H s       :     0.952587  s :     0.952587
      pz      :     0.011480  p :     0.020335
      px      :     0.006442
      py      :     0.002413
 17 H s       :     0.855279  s :     0.855279
      pz      :     0.013820  p :     0.045012
      px      :     0.008541
      py      :     0.022650
 18 H s       :     0.828745  s :     0.828745
      pz      :     0.012581  p :     0.047537
      px      :     0.025104
      py      :     0.009852
 19 H s       :     0.936675  s :     0.936675
      pz      :     0.009661  p :     0.024646
      px      :     0.005465
      py      :     0.009520
 20 H s       :     0.954176  s :     0.954176
      pz      :     0.010842  p :     0.023794
      px      :     0.007993
      py      :     0.004959
 21 H s       :     0.947816  s :     0.947816
      pz      :     0.005699  p :     0.023293
      px      :     0.013560
      py      :     0.004034


                     *******************************
                     * LOEWDIN POPULATION ANALYSIS *
                     *******************************

----------------------
LOEWDIN ATOMIC CHARGES
----------------------
   0 O :   -0.114571
   1 O :   -0.101200
   2 O :   -0.200897
   3 N :   -0.025352
   4 C :   -0.013753
   5 C :    0.038114
   6 C :   -0.111371
   7 C :    0.067112
   8 C :   -0.025459
   9 C :   -0.085113
  10 C :    0.215585
  11 C :    0.091812
  12 C :   -0.070749
  13 H :    0.034598
  14 H :    0.030759
  15 H :    0.012252
  16 H :    0.012087
  17 H :    0.068406
  18 H :    0.064294
  19 H :    0.043754
  20 H :    0.029898
  21 H :    0.039795

-------------------------------
LOEWDIN REDUCED ORBITAL CHARGES
-------------------------------
  0 O s       :     3.472388  s :     3.472388
      pz      :     1.811438  p :     4.610169
      px      :     1.252924
      py      :     1.545807
      dz2     :     0.003963  d :     0.032013
      dxz     :     0.004192
      dyz     :     0.003049
      dx2y2   :     0.004752
      dxy     :     0.016058
  1 O s       :     3.474077  s :     3.474077
      pz      :     1.787902  p :     4.595347
      px      :     1.346492
      py      :     1.460953
      dz2     :     0.003960  d :     0.031776
      dxz     :     0.004312
      dyz     :     0.002578
      dx2y2   :     0.013257
      dxy     :     0.007671
  2 O s       :     3.563126  s :     3.563126
      pz      :     1.382387  p :     4.609974
      px      :     1.627323
      py      :     1.600264
      dz2     :     0.003544  d :     0.027797
      dxz     :     0.005946
      dyz     :     0.004055
      dx2y2   :     0.005153
      dxy     :     0.009100
  3 N s       :     3.030664  s :     3.030664
      pz      :     1.673599  p :     3.957542
      px      :     1.153746
      py      :     1.130197
      dz2     :     0.002625  d :     0.037145
      dxz     :     0.002250
      dyz     :     0.002168
      dx2y2   :     0.016557
      dxy     :     0.013545
  4 C s       :     2.824517  s :     2.824517
      pz      :     1.055302  p :     3.011545
      px      :     0.969783
      py      :     0.986459
      dz2     :     0.012704  d :     0.177691
      dxz     :     0.030149
      dyz     :     0.019529
      dx2y2   :     0.056180
      dxy     :     0.059129
  5 C s       :     2.830268  s :     2.830268
      pz      :     0.982057  p :     2.950918
      px      :     0.884694
      py      :     1.084167
      dz2     :     0.012540  d :     0.180700
      dxz     :     0.035503
      dyz     :     0.018608
      dx2y2   :     0.065710
      dxy     :     0.048339
  6 C s       :     2.840603  s :     2.840603
      pz      :     1.080299  p :     3.165019
      px      :     1.038048
      py      :     1.046672
      dz2     :     0.008574  d :     0.105748
      dxz     :     0.009019
      dyz     :     0.013227
      dx2y2   :     0.038648
      dxy     :     0.036279
  7 C s       :     2.832412  s :     2.832412
      pz      :     0.933173  p :     2.956939
      px      :     1.008026
      py      :     1.015740
      dz2     :     0.009423  d :     0.143536
      dxz     :     0.024115
      dyz     :     0.023091
      dx2y2   :     0.038903
      dxy     :     0.048004
  8 C s       :     2.850328  s :     2.850328
      pz      :     0.999313  p :     3.081604
      px      :     1.043715
      py      :     1.038576
      dz2     :     0.006651  d :     0.093528
      dxz     :     0.018316
      dyz     :     0.005346
      dx2y2   :     0.034820
      dxy     :     0.028396
  9 C s       :     2.849415  s :     2.849415
      pz      :     1.085033  p :     3.148969
      px      :     1.034247
      py      :     1.029689
      dz2     :     0.006919  d :     0.086729
      dxz     :     0.012190
      dyz     :     0.005509
      dx2y2   :     0.029445
      dxy     :     0.032665
 10 C s       :     2.852943  s :     2.852943
      pz      :     1.104214  p :     2.754409
      px      :     0.883360
      py      :     0.766834
      dz2     :     0.025640  d :     0.177063
      dxz     :     0.043476
      dyz     :     0.022109
      dx2y2   :     0.038411
      dxy     :     0.047428
 11 C s       :     2.877482  s :     2.877482
      pz      :     0.820614  p :     2.822625
      px      :     1.021458
      py      :     0.980554
      dz2     :     0.017787  d :     0.208081
      dxz     :     0.034722
      dyz     :     0.027528
      dx2y2   :     0.080060
      dxy     :     0.047984
 12 C s       :     2.844578  s :     2.844578
      pz      :     1.050930  p :     3.158838
      px      :     1.069062
      py      :     1.038846
      dz2     :     0.007982  d :     0.067334
      dxz     :     0.014287
      dyz     :     0.019188
      dx2y2   :     0.019001
      dxy     :     0.006875
 13 H s       :     0.894968  s :     0.894968
      pz      :     0.015857  p :     0.070433
      px      :     0.012749
      py      :     0.041827
 14 H s       :     0.898387  s :     0.898387
      pz      :     0.017863  p :     0.070854
      px      :     0.013084
      py      :     0.039907
 15 H s       :     0.922743  s :     0.922743
      pz      :     0.035537  p :     0.065005
      px      :     0.022119
      py      :     0.007348
 16 H s       :     0.922937  s :     0.922937
      pz      :     0.034349  p :     0.064976
      px      :     0.022022
      py      :     0.008605
 17 H s       :     0.808257  s :     0.808257
      pz      :     0.042629  p :     0.123337
      px      :     0.019508
      py      :     0.061200
 18 H s       :     0.798361  s :     0.798361
      pz      :     0.041832  p :     0.137345
      px      :     0.071036
      py      :     0.024478
 19 H s       :     0.888383  s :     0.888383
      pz      :     0.027020  p :     0.067863
      px      :     0.013132
      py      :     0.027711
 20 H s       :     0.902843  s :     0.902843
      pz      :     0.030087  p :     0.067260
      px      :     0.021842
      py      :     0.015330
 21 H s       :     0.894214  s :     0.894214
      pz      :     0.014683  p :     0.065990
      px      :     0.039061
      py      :     0.012247


                      *****************************
                      * MAYER POPULATION ANALYSIS *
                      *****************************

  NA   - Mulliken gross atomic population
  ZA   - Total nuclear charge
  QA   - Mulliken gross atomic charge
  VA   - Mayer's total valence
  BVA  - Mayer's bonded valence
  FA   - Mayer's free valence

  ATOM       NA         ZA         QA         VA         BVA        FA
  0 O      8.3063     8.0000    -0.3063     2.1818     2.1818    -0.0000
  1 O      8.2984     8.0000    -0.2984     2.2111     2.2111     0.0000
  2 O      8.2712     8.0000    -0.2712     2.2063     2.2063    -0.0000
  3 N      7.0892     7.0000    -0.0892     3.2311     3.2311    -0.0000
  4 C      5.8303     6.0000     0.1697     3.8782     3.8782    -0.0000
  5 C      5.8192     6.0000     0.1808     3.9139     3.9139    -0.0000
  6 C      5.9416     6.0000     0.0584     3.5242     3.5242    -0.0000
  7 C      5.9175     6.0000     0.0825     4.0867     4.0867    -0.0000
  8 C      6.1258     6.0000    -0.1258     3.8592     3.8592    -0.0000
  9 C      6.1307     6.0000    -0.1307     3.7431     3.7431    -0.0000
 10 C      5.5971     6.0000     0.4029     3.9042     3.9042    -0.0000
 11 C      6.0279     6.0000    -0.0279     4.2062     4.2062    -0.0000
 12 C      5.9339     6.0000     0.0661     3.8762     3.8762    -0.0000
 13 H      1.0305     1.0000    -0.0305     1.0045     1.0045    -0.0000
 14 H      1.0483     1.0000    -0.0483     0.9980     0.9980    -0.0000
 15 H      0.9724     1.0000     0.0276     0.9813     0.9813     0.0000
 16 H      0.9729     1.0000     0.0271     0.9813     0.9813    -0.0000
 17 H      0.9003     1.0000     0.0997     1.0034     1.0034     0.0000
 18 H      0.8763     1.0000     0.1237     1.0432     1.0432    -0.0000
 19 H      0.9613     1.0000     0.0387     0.9970     0.9970    -0.0000
 20 H      0.9780     1.0000     0.0220     0.9954     0.9954    -0.0000
 21 H      0.9711     1.0000     0.0289     1.0155     1.0155    -0.0000

  Mayer bond orders larger than 0.100000
B(  0-O ,  4-C ) :   1.0664 B(  0-O , 10-C ) :   0.9903 B(  1-O ,  5-C ) :   1.0958 
B(  1-O , 10-C ) :   0.9781 B(  2-O , 11-C ) :   2.0187 B(  3-N ,  7-C ) :   1.3081 
B(  3-N , 17-H ) :   0.9425 B(  3-N , 18-H ) :   0.9146 B(  4-C ,  5-C ) :   1.2928 
B(  4-C ,  8-C ) :   1.3914 B(  5-C ,  9-C ) :   1.3651 B(  6-C ,  7-C ) :   1.3116 
B(  6-C ,  8-C ) :   1.2520 B(  6-C , 11-C ) :   0.9772 B(  7-C ,  9-C ) :   1.2420 
B(  8-C ,  9-C ) :   0.1096 B(  8-C , 13-H ) :   1.0124 B(  9-C , 14-H ) :   1.0199 
B( 10-C , 15-H ) :   0.9585 B( 10-C , 16-H ) :   0.9584 B( 11-C , 12-C ) :   1.0547 
B( 12-C , 19-H ) :   0.9341 B( 12-C , 20-H ) :   0.9551 B( 12-C , 21-H ) :   0.9501 


-------
TIMINGS
-------

Total SCF time: 0 days 0 hours 0 min 18 sec 

Total time                  ....      18.646 sec
Sum of individual times     ....      18.245 sec  ( 97.9%)

Fock matrix formation       ....      16.374 sec  ( 87.8%)
  Split-RI-J                ....       1.650 sec  ( 10.1% of F)
  Chain of spheres X        ....      11.785 sec  ( 72.0% of F)
  XC integration            ....       2.678 sec  ( 16.4% of F)
    Basis function eval.    ....       0.798 sec  ( 29.8% of XC)
    Density eval.           ....       0.478 sec  ( 17.8% of XC)
    XC-Functional eval.     ....       0.110 sec  (  4.1% of XC)
    XC-Potential eval.      ....       0.463 sec  ( 17.3% of XC)
Diagonalization             ....       0.107 sec  (  0.6%)
Density matrix formation    ....       0.010 sec  (  0.1%)
Population analysis         ....       0.039 sec  (  0.2%)
Initial guess               ....       0.197 sec  (  1.1%)
Orbital Transformation      ....       0.000 sec  (  0.0%)
Orbital Orthonormalization  ....       0.000 sec  (  0.0%)
DIIS solution               ....       0.117 sec  (  0.6%)
SOSCF solution              ....       0.153 sec  (  0.8%)
Grid generation             ....       1.249 sec  (  6.7%)

Maximum memory used throughout the entire SCF-calculation: 59.2 MB

-------------------------   --------------------
FINAL SINGLE POINT ENERGY      -628.311189147507
-------------------------   --------------------



           ************************************************************
           *        Program running with 8 parallel MPI-processes     *
           *              working on a common directory               *
           ************************************************************
------------------------------------------------------------------------------
                         ORCA SCF GRADIENT CALCULATION
------------------------------------------------------------------------------

 ... reading COSX grid (gridx3)
Gradient of the Kohn-Sham DFT energy:
Kohn-Sham wavefunction type      ... RKS
Hartree-Fock exchange scaling    ...    0.200
Number of operators              ...    1
Number of atoms                  ...   22
Basis set dimensions             ...  227
Integral neglect threshold       ... 2.5e-11
Integral primitive cutoff        ... 2.5e-12
SHARK Integral package           ... ON

Nuc. rep. gradient       (SHARK) ... done (  0.0 sec)
HCore & Overlap gradient (SHARK) ... done (  0.1 sec)
RI-J gradient            (SHARK) ... done (  0.3 sec)
COSX-gradient                    ... done (  2.0 sec)
Exchange-correlation gradient    ... done

------------------
CARTESIAN GRADIENT
------------------

   1   O   :   -0.017593230    0.027715242   -0.001513314
   2   O   :    0.010930882   -0.030553921    0.002307315
   3   O   :   -0.013718029   -0.014144412   -0.016134709
   4   N   :   -0.028349784   -0.015465134   -0.000961165
   5   C   :    0.024710800   -0.025975789    0.002802422
   6   C   :    0.006119347    0.030136064   -0.002517987
   7   C   :    0.008249727   -0.009829292   -0.002238786
   8   C   :    0.041439555    0.042549352    0.001216684
   9   C   :   -0.018247817    0.001313694   -0.003632089
  10   C   :   -0.009519818    0.000656811   -0.000800889
  11   C   :   -0.030733097   -0.012081920    0.001053960
  12   C   :    0.036755666    0.014000845    0.015108228
  13   C   :   -0.004069453    0.008527810   -0.003802158
  14   H   :    0.001597966   -0.003270955   -0.000378345
  15   H   :   -0.001000862    0.003781286   -0.000389272
  16   H   :   -0.002296708    0.000401556    0.005159222
  17   H   :   -0.002209119   -0.000456649   -0.005235258
  18   H   :   -0.000678448   -0.003307657   -0.001177147
  19   H   :   -0.001024980   -0.003282119    0.005615556
  20   H   :   -0.000079121   -0.006552540    0.002377434
  21   H   :   -0.004297293   -0.005114093   -0.000889945
  22   H   :    0.004007055    0.000821246    0.004020181

Difference to translation invariance:
           :   -0.0000067623   -0.0001305763   -0.0000100625

Difference to rotation invariance:
           :    0.0001199556   -0.0000121336   -0.0012419460

Norm of the cartesian gradient     ...    0.1160231261
RMS gradient                       ...    0.0142814596
MAX gradient                       ...    0.0425493517

-------
TIMINGS
-------

Total SCF gradient time            ...        3.755 sec

One electron gradient       ....       0.051 sec  (  1.4%)
RI-J Coulomb gradient       ....       0.258 sec  (  6.9%)
COSX gradient               ....       2.036 sec  ( 54.2%)
XC gradient                 ....       1.117 sec  ( 29.8%)

Maximum memory used throughout the entire SCFGRAD-calculation: 46.2 MB
------------------------------------------------------------------------------
                         ORCA GEOMETRY RELAXATION STEP
------------------------------------------------------------------------------

Reading the OPT-File                    .... done
Getting information on internals        .... done
Copying old internal coords+grads       .... done
Making the new internal coordinates     .... (new redundants).... done
Validating the new internal coordinates .... (new redundants).... done
Calculating the B-matrix                .... done
Calculating the G,G- and P matrices     .... done
Transforming gradient to internals      .... done
Projecting the internal gradient        .... done
Number of atoms                         ....  22
Number of internal coordinates          .... 109
Current Energy                          ....  -628.311189148 Eh
Current gradient norm                   ....     0.116023126 Eh/bohr
Maximum allowed component of the step   ....  0.300
Current trust radius                    ....  0.300
Evaluating the initial hessian          ....  (Almloef) done
Projecting the Hessian                  .... done
Forming the augmented Hessian           .... done
Diagonalizing the augmented Hessian     .... done
Last element of RFO vector              ....  0.933089142
Lowest eigenvalues of augmented Hessian:
 -0.021947117  0.010959031  0.013128656  0.017964909  0.018754787
Length of the computed step             ....  0.385434962
Warning: the length of the step is outside the trust region - taking restricted step instead
The input lambda is                     ....    -0.021947
   iter:   1  x=   -0.032230  g=    5.694811 f(x)=     0.058560
   iter:   2  x=   -0.037805  g=    2.933693 f(x)=     0.016356
   iter:   3  x=   -0.038840  g=    2.177963 f(x)=     0.002254
   iter:   4  x=   -0.038868  g=    2.068692 f(x)=     0.000057
   iter:   5  x=   -0.038868  g=    2.065878 f(x)=     0.000000
   iter:   6  x=   -0.038868  g=    2.065877 f(x)=     0.000000
The output lambda is                    ....    -0.038868 (6 iterations)
The final length of the internal step   ....  0.300000000
Converting the step to cartesian space:
 Initial RMS(Int)=    0.0287347886
Transforming coordinates:
 Iter   0:  RMS(Cart)=    0.0776228203 RMS(Int)=    1.7995282360
 Iter   1:  RMS(Cart)=    0.0030022396 RMS(Int)=    0.0017546179
[...]
     50       0.063444   0.000562  -0.028067  -0.535115   0.001379   0.590111
     51      -0.194562   0.186661  -0.230990  -0.000313   0.000183   0.000012
     52       0.009638   0.016893  -0.093291   0.000640   0.000501  -0.000035
     53       0.006362  -0.007227   0.007291   0.000047   0.000017  -0.000126
     54      -0.205417   0.034344  -0.135873   0.000658   0.002361  -0.000059
     55      -0.630756   0.214140  -0.329642  -0.000514   0.000205   0.000025
     56      -0.016883   0.009162  -0.007749  -0.000038  -0.000100   0.000069
     57      -0.012064   0.031243  -0.045467   0.000435   0.213242   0.000171
     58      -0.049829   0.027817  -0.132327   0.000664   0.300465   0.000233
     59      -0.030307   0.026271  -0.073064  -0.001264  -0.513872  -0.000383
     60      -0.009955   0.029083  -0.040066   0.000533   0.261382  -0.000116
     61      -0.051396   0.029370  -0.135885   0.000566   0.270891  -0.000121
     62       0.027587  -0.026687   0.067018   0.001252   0.525598  -0.000227
     63       0.003739  -0.009002   0.014666  -0.001988  -0.422321   0.000007
     64       0.068292  -0.062227   0.275266   0.000079   0.025253   0.000000
     65       0.002381  -0.001670   0.008785   0.000085   0.018192   0.000014
                 60         61         62         63         64         65    
      0       0.000001  -0.000039   0.000134   0.000221  -0.000275  -0.000087
      1       0.000001  -0.000012   0.000095  -0.000112  -0.000059  -0.000019
      2       0.000003   0.000002  -0.000004  -0.000019   0.000011   0.000004
      3       0.000001  -0.000035   0.000240   0.000179  -0.000036  -0.000017
      4      -0.000001   0.000012   0.000233   0.000030  -0.000092   0.000038
      5       0.000016   0.000003  -0.000005  -0.000008  -0.000001   0.000002
      6       0.000004   0.000732  -0.000127  -0.000238   0.003266  -0.000725
      7      -0.000007   0.000244  -0.000144   0.000020   0.002253  -0.000372
      8       0.000174  -0.000023   0.000001   0.000012  -0.000073   0.000019
      9      -0.000002  -0.000220  -0.000647  -0.000017   0.060495  -0.038902
     10       0.000000   0.000047   0.000012  -0.000087   0.007558   0.071779
     11      -0.000006   0.000010   0.000031  -0.000001  -0.002204   0.005283
     12       0.000002   0.000150   0.000354  -0.004866   0.000854  -0.000031
     13      -0.000001   0.000103  -0.000717   0.000718  -0.000913   0.000080
     14      -0.000064  -0.000004  -0.000047   0.000275  -0.000075   0.000005
     15      -0.000001   0.000001  -0.004114  -0.000251   0.000565   0.000051
     16       0.000004  -0.000043  -0.003175   0.000443   0.001376  -0.000163
     17      -0.000022  -0.000002   0.000084   0.000029   0.000022  -0.000011
     18      -0.000002   0.000078  -0.000281   0.001988   0.002669  -0.000177
     19      -0.000001  -0.000233  -0.000483   0.001762  -0.001662  -0.000806
     20       0.000016  -0.000014  -0.000002  -0.000031  -0.000203  -0.000017
     21       0.000007  -0.000041   0.003573  -0.000075   0.000627  -0.001798
     22      -0.000005  -0.000208  -0.000266   0.000707   0.001544  -0.000685
     23       0.000061  -0.000005  -0.000198   0.000030   0.000066   0.000088
     24      -0.000033  -0.000364  -0.000532   0.021918  -0.000889   0.000008
     25       0.000066   0.001497   0.001818  -0.084075  -0.000087   0.000223
     26      -0.000236   0.000073   0.000097  -0.004401   0.000041   0.000005
     27      -0.000003  -0.000003  -0.021435  -0.000507  -0.002687   0.000220
     28      -0.000001   0.000102   0.084945   0.002060  -0.000361  -0.000148
     29      -0.000012   0.000004   0.004411   0.000107   0.000130  -0.000024
     30       0.000002   0.000090   0.000049   0.000190   0.000161   0.000064
     31      -0.000002   0.000012   0.000126  -0.000111  -0.000050  -0.000041
     32       0.000054  -0.000004   0.000013  -0.000004  -0.000010  -0.000006
     33       0.000012  -0.001511   0.000371   0.000295  -0.005955   0.000924
     34       0.000026  -0.001037   0.000184  -0.000600  -0.001626   0.000276
     35       0.000368   0.000037  -0.000011  -0.000034   0.000236  -0.000034
     36       0.004849  -0.092140   0.000067  -0.001149   0.000164  -0.000103
     37      -0.003602  -0.015440   0.000010  -0.000910   0.000181  -0.000082
     38       0.092192   0.004386  -0.000005   0.000076   0.000000   0.000003
     39       0.000145   0.005543   0.005502  -0.240491  -0.000254   0.000557
     40      -0.000630  -0.016515  -0.022380   0.964898  -0.000737  -0.000332
     41       0.001030  -0.000907  -0.001152   0.049859  -0.000030  -0.000039
     42       0.000000   0.000215   0.260973   0.006114   0.003174   0.000897
     43       0.000005  -0.000865  -0.959685  -0.022031  -0.005291   0.001358
     44       0.000026  -0.000044  -0.050705  -0.001171  -0.000342   0.000045
     45       0.000193  -0.000355   0.000263  -0.000133  -0.000329  -0.000154
     46       0.000067  -0.000098  -0.000008   0.000137   0.000032   0.000019
     47      -0.000330   0.000560  -0.000241   0.000265   0.000412   0.000189
     48      -0.000216  -0.000436   0.000235  -0.000211  -0.000397  -0.000172
     49      -0.000042  -0.000059  -0.000010   0.000123   0.000047   0.000033
     50      -0.000284  -0.000529   0.000117  -0.000324  -0.000386  -0.000160
     51      -0.000003   0.000073  -0.003928  -0.000023   0.071065   0.255839
     52       0.000010   0.001103  -0.000186  -0.001004  -0.332035  -0.908463
     53      -0.000081   0.000053   0.000192  -0.000047  -0.019922  -0.057794
     54       0.000029   0.004040   0.005182  -0.000227  -0.911825   0.307179
     55      -0.000010  -0.000044  -0.003095   0.000304   0.215759  -0.067659
     56       0.000237  -0.000175  -0.000355   0.000018   0.049586  -0.016155
     57       0.247354   0.092036  -0.000160   0.006421   0.000848  -0.000045
     58       0.349950   0.144292  -0.000159   0.006853   0.002420  -0.000553
     59      -0.562681  -0.244335   0.000261  -0.011443  -0.001786   0.000247
     60      -0.290583   0.105143  -0.000166   0.006937   0.000985  -0.000068
     61      -0.307938   0.119928  -0.000125   0.005654   0.002253  -0.000525
     62      -0.558075   0.232134  -0.000230   0.010596   0.001826  -0.000277
     63      -0.014582   0.903347  -0.001285   0.010244   0.002729  -0.000264
     64       0.000595  -0.070584   0.000223   0.000580  -0.001800   0.000335
     65       0.016679  -0.039879   0.000062  -0.000410  -0.000175   0.000023


-----------
IR SPECTRUM
-----------

 Mode   freq       eps      Int      T**2         TX        TY        TZ
       cm**-1   L/(mol*cm) km/mol    a.u.
----------------------------------------------------------------------------
  7:     82.23   0.000767    3.88  0.002913  (-0.002344  0.003315 -0.053816)
  8:     98.25   0.000141    0.71  0.000447  (-0.000341 -0.003086  0.020919)
  9:    165.19   0.000007    0.04  0.000013  (-0.000324  0.000548  0.003614)
 10:    168.82   0.000286    1.45  0.000529  (-0.000711  0.001220 -0.022960)
 11:    213.43   0.000198    1.00  0.000290  (-0.014209  0.008950  0.002761)
 12:    236.23   0.012395   62.64  0.016373  ( 0.005515 -0.008652  0.127546)
 13:    296.83   0.015402   77.84  0.016193  ( 0.004927 -0.008596  0.126865)
 14:    349.41   0.000738    3.73  0.000659  ( 0.001531 -0.001335  0.025599)
 15:    354.82   0.000580    2.93  0.000510  ( 0.021391 -0.006696 -0.002719)
 16:    367.82   0.001427    7.21  0.001211  (-0.009410  0.033499 -0.000252)
 17:    410.72   0.000554    2.80  0.000421  (-0.020273  0.002766  0.001561)
 18:    440.76   0.000306    1.54  0.000216  (-0.000447  0.000343 -0.014699)
 19:    465.52   0.000880    4.45  0.000590  ( 0.023649  0.005459 -0.000836)
 20:    531.27   0.002944   14.88  0.001729  (-0.028912  0.029797  0.002376)
 21:    583.69   0.000085    0.43  0.000045  ( 0.000752 -0.000066  0.006686)
 22:    654.80   0.004874   24.63  0.002323  ( 0.044805 -0.017490 -0.003100)
 23:    687.24   0.002855   14.43  0.001296  ( 0.001402 -0.001943  0.035926)
 24:    696.32   0.002672   13.50  0.001197  (-0.001304  0.001242 -0.034557)
 25:    727.29   0.000614    3.10  0.000263  (-0.013015  0.009637  0.001064)
 26:    752.07   0.000150    0.76  0.000062  ( 0.007237 -0.003168 -0.000070)
 27:    754.32   0.001148    5.80  0.000475  (-0.000749  0.001076 -0.021758)
 28:    794.45   0.000401    2.03  0.000158  (-0.004118 -0.011854 -0.000258)
 29:    849.70   0.003223   16.29  0.001184  ( 0.001712 -0.001518  0.034330)
 30:    865.39   0.004168   21.06  0.001503  ( 0.032572  0.021023 -0.000165)
 31:    895.59   0.003426   17.32  0.001194  ( 0.002195 -0.001549  0.034448)
 32:    947.54   0.008086   40.86  0.002663  ( 0.050890 -0.008102 -0.002758)
 33:    991.36   0.014129   71.40  0.004448  (-0.004405  0.066491  0.002658)
 34:   1030.10   0.000610    3.08  0.000185  (-0.000523  0.000392 -0.013573)
 35:   1039.96   0.003024   15.28  0.000908  ( 0.026299 -0.014566 -0.001932)
 36:   1072.96   0.003516   17.77  0.001023  ( 0.031443  0.005454 -0.002051)
 37:   1086.99   0.019213   97.10  0.005516  ( 0.073553  0.009159 -0.004695)
 38:   1139.10   0.002115   10.69  0.000579  ( 0.002177 -0.000511  0.023966)
 39:   1147.40   0.006393   32.31  0.001739  (-0.032061  0.026545  0.002503)
 40:   1197.93   0.000005    0.03  0.000001  ( 0.001091 -0.000453  0.000118)
 41:   1235.45   0.014593   73.75  0.003686  ( 0.031757  0.051746  0.000044)
 42:   1256.80   0.020070  101.43  0.004983  ( 0.067065  0.021891 -0.002543)
 43:   1298.71   0.093773  473.89  0.022532  (-0.144456  0.039822  0.008887)
 44:   1326.41   0.016538   83.58  0.003891  (-0.062287 -0.000300  0.003331)
 45:   1371.76   0.008987   45.42  0.002044  ( 0.019268 -0.040832 -0.002452)
 46:   1426.49   0.006587   33.29  0.001441  (-0.037923 -0.000167  0.001694)
 47:   1440.51   0.012015   60.72  0.002603  ( 0.050493 -0.006749 -0.002777)
 48:   1442.12   0.009789   49.47  0.002118  ( 0.037864 -0.026021 -0.002724)
 49:   1455.60   0.001684    8.51  0.000361  ( 0.001470 -0.000880  0.018922)
 50:   1481.30   0.005041   25.48  0.001062  (-0.029531  0.013643  0.001947)
 51:   1525.46   0.022734  114.89  0.004651  ( 0.064005  0.023424 -0.002310)
 52:   1545.51   0.038929  196.73  0.007860  (-0.085864 -0.021791  0.003587)
 53:   1588.55   0.054278  274.30  0.010663  (-0.060249 -0.083861 -0.000323)
 54:   1648.77   0.029949  151.35  0.005668  ( 0.039068 -0.064199 -0.004535)
 55:   1709.17   0.008638   43.65  0.001577  ( 0.035745  0.017260 -0.001223)
 56:   1725.26   0.058990  298.11  0.010670  ( 0.091534  0.047782 -0.002921)
 57:   3010.46   0.031971  161.57  0.003314  ( 0.056350  0.010585 -0.005165)
 58:   3037.73   0.000586    2.96  0.000060  ( 0.000348 -0.007744 -0.000393)
 59:   3063.01   0.009204   46.51  0.000938  (-0.004693  0.000605 -0.030255)
 60:   3114.30   0.001343    6.79  0.000135  ( 0.000662 -0.000544  0.011570)
 61:   3159.17   0.001365    6.90  0.000135  (-0.011401  0.002096  0.000694)
 62:   3200.69   0.000672    3.40  0.000066  (-0.001692  0.007908  0.000388)
 63:   3232.68   0.000258    1.31  0.000025  (-0.003288 -0.003759  0.000007)
 64:   3452.79   0.025845  130.61  0.002336  (-0.048144  0.003576  0.002295)
 65:   3698.09   0.013924   70.36  0.001175  ( 0.012872 -0.031704 -0.002023)

* The epsilon (eps) is given for a Dirac delta lineshape.
** The dipole moment derivative (T) already includes vibrational overlap.

The first frequency considered to be a vibration is 7
The total number of vibrations considered is 59


--------------------------
THERMOCHEMISTRY AT 298.15K
--------------------------

Temperature         ... 298.15 K
Pressure            ... 1.00 atm
Total Mass          ... 179.18 AMU

Throughout the following assumptions are being made:
  (1) The electronic state is orbitally nondegenerate
  (2) There are no thermally accessible electronically excited states
  (3) Hindered rotations indicated by low frequency modes are not
      treated as such but are treated as vibrations and this may
      cause some error
  (4) All equations used are the standard statistical mechanics
      equations for an ideal gas
  (5) All vibrations are strictly harmonic

freq.      82.23  E(vib)   ...       0.48 
freq.      98.25  E(vib)   ...       0.46 
freq.     165.19  E(vib)   ...       0.39 
freq.     168.82  E(vib)   ...       0.38 
freq.     213.43  E(vib)   ...       0.34 
freq.     236.23  E(vib)   ...       0.32 
freq.     296.83  E(vib)   ...       0.27 
freq.     349.41  E(vib)   ...       0.23 
freq.     354.82  E(vib)   ...       0.22 
freq.     367.82  E(vib)   ...       0.21 
freq.     410.72  E(vib)   ...       0.19 
freq.     440.76  E(vib)   ...       0.17 
freq.     465.52  E(vib)   ...       0.16 
freq.     531.27  E(vib)   ...       0.13 
freq.     583.69  E(vib)   ...       0.11 
freq.     654.80  E(vib)   ...       0.08 
freq.     687.24  E(vib)   ...       0.07 
freq.     696.32  E(vib)   ...       0.07 
freq.     727.29  E(vib)   ...       0.06 
freq.     752.07  E(vib)   ...       0.06 
freq.     754.32  E(vib)   ...       0.06 
freq.     794.45  E(vib)   ...       0.05 
freq.     849.70  E(vib)   ...       0.04 
freq.     865.39  E(vib)   ...       0.04 
freq.     895.59  E(vib)   ...       0.03 
freq.     947.54  E(vib)   ...       0.03 
freq.     991.36  E(vib)   ...       0.02 
freq.    1030.10  E(vib)   ...       0.02 
freq.    1039.96  E(vib)   ...       0.02 
freq.    1072.96  E(vib)   ...       0.02 
freq.    1086.99  E(vib)   ...       0.02 
freq.    1139.10  E(vib)   ...       0.01 
freq.    1147.40  E(vib)   ...       0.01 
freq.    1197.93  E(vib)   ...       0.01 
freq.    1235.45  E(vib)   ...       0.01 
freq.    1256.80  E(vib)   ...       0.01 
freq.    1298.71  E(vib)   ...       0.01 
freq.    1326.41  E(vib)   ...       0.01 
freq.    1371.76  E(vib)   ...       0.01 
freq.    1426.49  E(vib)   ...       0.00 
freq.    1440.51  E(vib)   ...       0.00 
freq.    1442.12  E(vib)   ...       0.00 
freq.    1455.60  E(vib)   ...       0.00 
freq.    1481.30  E(vib)   ...       0.00 
freq.    1525.46  E(vib)   ...       0.00 
freq.    1545.51  E(vib)   ...       0.00 
freq.    1588.55  E(vib)   ...       0.00 
freq.    1648.77  E(vib)   ...       0.00 
freq.    1709.17  E(vib)   ...       0.00 
freq.    1725.26  E(vib)   ...       0.00 
freq.    3010.46  E(vib)   ...       0.00 
freq.    3037.73  E(vib)   ...       0.00 
freq.    3063.01  E(vib)   ...       0.00 
freq.    3114.30  E(vib)   ...       0.00 
freq.    3159.17  E(vib)   ...       0.00 
freq.    3200.69  E(vib)   ...       0.00 
freq.    3232.68  E(vib)   ...       0.00 
freq.    3452.79  E(vib)   ...       0.00 
freq.    3698.09  E(vib)   ...       0.00 

------------
INNER ENERGY
------------

The inner energy is: U= E(el) + E(ZPE) + E(vib) + E(rot) + E(trans)
    E(el)   - is the total energy from the electronic structure calculation
              = E(kin-el) + E(nuc-el) + E(el-el) + E(nuc-nuc)
    E(ZPE)  - the the zero temperature vibrational energy from the frequency calculation
    E(vib)  - the the finite temperature correction to E(ZPE) due to population
              of excited vibrational states
    E(rot)  - is the rotational thermal energy
    E(trans)- is the translational thermal energy

Summary of contributions to the inner energy U:
Electronic energy                ...   -628.33191643 Eh
Zero point energy                ...      0.16981991 Eh     106.56 kcal/mol
Thermal vibrational correction   ...      0.00774014 Eh       4.86 kcal/mol
Thermal rotational correction    ...      0.00141627 Eh       0.89 kcal/mol
Thermal translational correction ...      0.00141627 Eh       0.89 kcal/mol
-----------------------------------------------------------------------
Total thermal energy                   -628.15152384 Eh


Summary of corrections to the electronic energy:
(perhaps to be used in another calculation)
Total thermal correction                  0.01057268 Eh       6.63 kcal/mol
Non-thermal (ZPE) correction              0.16981991 Eh     106.56 kcal/mol
-----------------------------------------------------------------------
Total correction                          0.18039259 Eh     113.20 kcal/mol


--------
ENTHALPY
--------

The enthalpy is H = U + kB*T
                kB is Boltzmann's constant
Total free energy                 ...   -628.15152384 Eh 
Thermal Enthalpy correction       ...      0.00094421 Eh       0.59 kcal/mol
-----------------------------------------------------------------------
Total Enthalpy                    ...   -628.15057963 Eh


Note: Only C1 symmetry has been detected, increase convergence thresholds 
      if your molecule has a higher symmetry. Symmetry factor of 1.0 is   
      used for the rotational entropy correction. 
 

Note: Rotational entropy computed according to Herzberg 
Infrared and Raman Spectra, Chapter V,1, Van Nostrand Reinhold, 1945 
Point Group:  C1, Symmetry Number:   1  
Rotational constants in cm-1:     0.056878     0.018168     0.013843 

Vibrational entropy computed according to the QRRHO of S. Grimme
Chem.Eur.J. 2012 18 9955


-------
ENTROPY
-------

The entropy contributions are T*S = T*(S(el)+S(vib)+S(rot)+S(trans))
     S(el)   - electronic entropy
     S(vib)  - vibrational entropy
     S(rot)  - rotational entropy
     S(trans)- translational entropy
The entropies will be listed as multiplied by the temperature to get
units of energy

Electronic entropy                ...      0.00000000 Eh      0.00 kcal/mol
Vibrational entropy               ...      0.01283773 Eh      8.06 kcal/mol
Rotational entropy                ...      0.01477691 Eh      9.27 kcal/mol
Translational entropy             ...      0.01969720 Eh     12.36 kcal/mol
-----------------------------------------------------------------------
Final entropy term                ...      0.04731184 Eh     29.69 kcal/mol

In case the symmetry of your molecule has not been determined correctly
or in case you have a reason to use a different symmetry number we print 
out the resulting rotational entropy values for sn=1,12 :
 --------------------------------------------------------
|  sn= 1 | S(rot)=       0.01477691 Eh      9.27 kcal/mol|
|  sn= 2 | S(rot)=       0.01412246 Eh      8.86 kcal/mol|
|  sn= 3 | S(rot)=       0.01373962 Eh      8.62 kcal/mol|
|  sn= 4 | S(rot)=       0.01346800 Eh      8.45 kcal/mol|
|  sn= 5 | S(rot)=       0.01325731 Eh      8.32 kcal/mol|
|  sn= 6 | S(rot)=       0.01308517 Eh      8.21 kcal/mol|
|  sn= 7 | S(rot)=       0.01293962 Eh      8.12 kcal/mol|
|  sn= 8 | S(rot)=       0.01281354 Eh      8.04 kcal/mol|
|  sn= 9 | S(rot)=       0.01270234 Eh      7.97 kcal/mol|
|  sn=10 | S(rot)=       0.01260286 Eh      7.91 kcal/mol|
|  sn=11 | S(rot)=       0.01251287 Eh      7.85 kcal/mol|
|  sn=12 | S(rot)=       0.01243071 Eh      7.80 kcal/mol|
 --------------------------------------------------------


-------------------
GIBBS FREE ENERGY
-------------------

The Gibbs free energy is G = H - T*S

Total enthalpy                    ...   -628.15057963 Eh 
Total entropy correction          ...     -0.04731184 Eh    -29.69 kcal/mol
-----------------------------------------------------------------------
Final Gibbs free energy         ...   -628.19789147 Eh

For completeness - the Gibbs free energy minus the electronic energy
G-E(el)                           ...      0.13402496 Eh     84.10 kcal/mol


Timings for individual modules:

Sum of individual times         ...      333.323 sec (=   5.555 min)
GTO integral calculation        ...        4.423 sec (=   0.074 min)   1.3 %
SCF iterations                  ...      174.934 sec (=   2.916 min)  52.5 %
SCF Gradient evaluation         ...       46.251 sec (=   0.771 min)  13.9 %
Geometry relaxation             ...        0.635 sec (=   0.011 min)   0.2 %
Analytical frequency calculation...      107.081 sec (=   1.785 min)  32.1 %
                             ****ORCA TERMINATED NORMALLY****
TOTAL RUN TIME: 0 days 0 hours 5 minutes 35 seconds 870 msec
