
                                 *****************
                                 * O   R   C   A *
                                 *****************

                                            #,                                       
                                            ###                                      
                                            ####                                     
                                            #####                                    
                                            ######                                   
                                           ########,                                 
                                     ,,################,,,,,                         
                               ,,#################################,,                 
                          ,,##########################################,,             
                       ,#########################################, ''#####,          
                    ,#############################################,,   '####,        
                  ,##################################################,,,,####,       
                ,###########''''           ''''###############################       
              ,#####''   ,,,,##########,,,,          '''####'''          '####       
            ,##' ,,,,###########################,,,                        '##       
           ' ,,###''''                  '''############,,,                           
         ,,##''                                '''############,,,,        ,,,,,,###''
      ,#''                                            '''#######################'''  
     '                                                          ''''####''''         
             ,#######,   #######,   ,#######,      ##                                
            ,#'     '#,  ##    ##  ,#'     '#,    #''#        ######   ,####,        
            ##       ##  ##   ,#'  ##            #'  '#       #        #'  '#        
            ##       ##  #######   ##           ,######,      #####,   #    #        
            '#,     ,#'  ##    ##  '#,     ,#' ,#      #,         ##   #,  ,#        
             '#######'   ##     ##  '#######'  #'      '#     #####' # '####'        



                  #######################################################
                  #                        -***-                        #
                  #          Department of theory and spectroscopy      #
                  #    Directorship and core code : Frank Neese         #
                  #        Max Planck Institute fuer Kohlenforschung    #
                  #                Kaiser Wilhelm Platz 1               #
                  #                 D-45470 Muelheim/Ruhr               #
                  #                      Germany                        #
                  #                                                     #
                  #                  All rights reserved                #
                  #                        -***-                        #
                  #######################################################


                         Program Version 5.0.3 -  RELEASE  -


 With contributions from (in alphabetic order):
   Daniel Aravena         : Magnetic Suceptibility
   Michael Atanasov       : Ab Initio Ligand Field Theory (pilot matlab implementation)
   Alexander A. Auer      : GIAO ZORA, VPT2 properties, NMR spectrum
   Ute Becker             : Parallelization
   Giovanni Bistoni       : ED, misc. LED, open-shell LED, HFLD
   Martin Brehm           : Molecular dynamics
   Dmytro Bykov           : SCF Hessian
   Vijay G. Chilkuri      : MRCI spin determinant printing, contributions to CSF-ICE
   Dipayan Datta          : RHF DLPNO-CCSD density
   Achintya Kumar Dutta   : EOM-CC, STEOM-CC
   Dmitry Ganyushin       : Spin-Orbit,Spin-Spin,Magnetic field MRCI
   Miquel Garcia          : C-PCM and meta-GGA Hessian, CC/C-PCM, Gaussian charge scheme
   Yang Guo               : DLPNO-NEVPT2, F12-NEVPT2, CIM, IAO-localization
   Andreas Hansen         : Spin unrestricted coupled pair/coupled cluster methods
   Benjamin Helmich-Paris : MC-RPA, TRAH-SCF, COSX integrals
   Lee Huntington         : MR-EOM, pCC
   Robert Izsak           : Overlap fitted RIJCOSX, COSX-SCS-MP3, EOM
   Marcus Kettner         : VPT2
   Christian Kollmar      : KDIIS, OOCD, Brueckner-CCSD(T), CCSD density, CASPT2, CASPT2-K
   Simone Kossmann        : Meta GGA functionals, TD-DFT gradient, OOMP2, MP2 Hessian
   Martin Krupicka        : Initial AUTO-CI
   Lucas Lang             : DCDCAS
   Marvin Lechner         : AUTO-CI (C++ implementation), FIC-MRCC
   Dagmar Lenk            : GEPOL surface, SMD
   Dimitrios Liakos       : Extrapolation schemes; Compound Job, initial MDCI parallelization
   Dimitrios Manganas     : Further ROCIS development; embedding schemes
   Dimitrios Pantazis     : SARC Basis sets
   Anastasios Papadopoulos: AUTO-CI, single reference methods and gradients
   Taras Petrenko         : DFT Hessian,TD-DFT gradient, ASA, ECA, R-Raman, ABS, FL, XAS/XES, NRVS
   Peter Pinski           : DLPNO-MP2, DLPNO-MP2 Gradient
   Christoph Reimann      : Effective Core Potentials
   Marius Retegan         : Local ZFS, SOC
   Christoph Riplinger    : Optimizer, TS searches, QM/MM, DLPNO-CCSD(T), (RO)-DLPNO pert. Triples
   Tobias Risthaus        : Range-separated hybrids, TD-DFT gradient, RPA, STAB
   Michael Roemelt        : Original ROCIS implementation
   Masaaki Saitow         : Open-shell DLPNO-CCSD energy and density
   Barbara Sandhoefer     : DKH picture change effects
   Avijit Sen             : IP-ROCIS
   Kantharuban Sivalingam : CASSCF convergence, NEVPT2, FIC-MRCI
   Bernardo de Souza      : ESD, SOC TD-DFT
   Georgi Stoychev        : AutoAux, RI-MP2 NMR, DLPNO-MP2 response
   Willem Van den Heuvel  : Paramagnetic NMR
   Boris Wezisla          : Elementary symmetry handling
   Frank Wennmohs         : Technical directorship


 We gratefully acknowledge several colleagues who have allowed us to
 interface, adapt or use parts of their codes:
   Stefan Grimme, W. Hujo, H. Kruse, P. Pracht,  : VdW corrections, initial TS optimization,
                  C. Bannwarth, S. Ehlert          DFT functionals, gCP, sTDA/sTD-DF
   Ed Valeev, F. Pavosevic, A. Kumar             : LibInt (2-el integral package), F12 methods
   Garnet Chan, S. Sharma, J. Yang, R. Olivares  : DMRG
   Ulf Ekstrom                                   : XCFun DFT Library
   Mihaly Kallay                                 : mrcc  (arbitrary order and MRCC methods)
   Jiri Pittner, Ondrej Demel                    : Mk-CCSD
   Frank Weinhold                                : gennbo (NPA and NBO analysis)
   Christopher J. Cramer and Donald G. Truhlar   : smd solvation model
   Lars Goerigk                                  : TD-DFT with DH, B97 family of functionals
   V. Asgeirsson, H. Jonsson                     : NEB implementation
   FAccTs GmbH                                   : IRC, NEB, NEB-TS, DLPNO-Multilevel, CI-OPT
                                                   MM, QMMM, 2- and 3-layer-ONIOM, Crystal-QMMM,
                                                   LR-CPCM, SF, NACMEs, symmetry and pop. for TD-DFT,
                                                   nearIR, NL-DFT gradient (VV10), updates on ESD,
                                                   ML-optimized integration grids
   S Lehtola, MJT Oliveira, MAL Marques          : LibXC Library
   Liviu Ungur et al                             : ANISO software


 Your calculation uses the libint2 library for the computation of 2-el integrals
 For citations please refer to: http://libint.valeyev.net

 Your ORCA version has been built with support for libXC version: 5.1.0
 For citations please refer to: https://tddft.org/programs/libxc/

 This ORCA versions uses:
   CBLAS   interface :  Fast vector & matrix operations
   LAPACKE interface :  Fast linear algebra routines
   SCALAPACK package :  Parallel linear algebra routines
   Shared memory     :  Shared parallel matrices


Your calculation utilizes the atom-pairwise dispersion correction
with the Becke-Johnson damping scheme (D3BJ)
Cite in your paper:
S.Grimme, S.Ehrlich, L.Goerigk, J Comput Chem, (2011), 32, 1456–1465 
S.Grimme, J.Antony, S.Ehrlich and H.Krieg, J.Chem.Phys., 132, (2010), 154104 
   

================================================================================

----- Orbital basis set information -----
Your calculation utilizes the basis: def2-SVP
   F. Weigend and R. Ahlrichs, Phys. Chem. Chem. Phys. 7, 3297 (2005).

----- AuxJ basis set information -----
Your calculation utilizes the auxiliary basis: def2/J
   F. Weigend, Phys. Chem. Chem. Phys. 8, 1057 (2006).

================================================================================
                                        WARNINGS
                       Please study these warnings very carefully!
================================================================================


WARNING: Geometry Optimization
  ===> : Switching off AutoStart
         For restart on a previous wavefunction, please use MOREAD

INFO   : the flag for use of the SHARK integral package has been found!

================================================================================
                                       INPUT FILE
================================================================================
NAME = /Users/armando/tmp/pubchem_120000_d3bj.inp
|  1> %pal nprocs 8
|  2> end
|  3> !b3lyp/g opt d3bj
|  4> *xyz 0 1 
|  5> O    2.3491    1.5230   -0.1177
|  6> O    2.9372   -0.8076    0.0556
|  7> O   -3.3345   -0.1557   -0.5374
|  8> N   -1.7160   -2.1985    0.1502
|  9> C    1.2544    0.7168   -0.0610
| 10> C    1.5903   -0.6142    0.0378
| 11> C   -1.0532    0.1527   -0.0231
| 12> C   -0.7100   -1.2070    0.0778
| 13> C   -0.0607    1.1332   -0.0941
| 14> C    0.6296   -1.6019    0.1091
| 15> C    3.4118    0.5507   -0.0443
| 16> C   -2.4482    0.5750   -0.0562
| 17> C   -2.8498    1.9334    0.5033
| 18> H   -0.2885    2.1894   -0.1860
| 19> H    0.9122   -2.6467    0.1871
| 20> H    4.0323    0.6405   -0.9434
| 21> H    4.0299    0.7719    0.8334
| 22> H   -1.4532   -3.1725    0.2253
| 23> H   -2.6944   -1.9468    0.1517
| 24> H   -2.7744    2.6906   -0.2808
| 25> H   -2.2231    2.2036    1.3575
| 26> H   -3.8831    1.8802    0.8598
| 27> *
| 28> 
| 29>                          ****END OF INPUT****
================================================================================

                       *****************************
                       * Geometry Optimization Run *
                       *****************************

Geometry optimization settings:
Update method            Update   .... BFGS
Choice of coordinates    CoordSys .... Z-matrix Internals
Initial Hessian          InHess   .... Almoef's Model

Convergence Tolerances:
Energy Change            TolE     ....  5.0000e-06 Eh
Max. Gradient            TolMAXG  ....  3.0000e-04 Eh/bohr
RMS Gradient             TolRMSG  ....  1.0000e-04 Eh/bohr
Max. Displacement        TolMAXD  ....  4.0000e-03 bohr
RMS Displacement         TolRMSD  ....  2.0000e-03 bohr
Strict Convergence                ....  False
------------------------------------------------------------------------------
                        ORCA OPTIMIZATION COORDINATE SETUP
------------------------------------------------------------------------------

The optimization will be done in new redundant internal coordinates
Making redundant internal coordinates   ...  (new redundants) done
Evaluating the initial hessian          ...  (Almloef) done
Evaluating the coordinates              ...  done
Calculating the B-matrix                .... done
Calculating the G-matrix                .... done
Diagonalizing the G-matrix              .... done
Small eigenvalue found = 1.652e-02
The first mode is                       ....   49
The number of degrees of freedom        ....   60

    -----------------------------------------------------------------
                    Redundant Internal Coordinates


    -----------------------------------------------------------------
         Definition                    Initial Value    Approx d2E/dq
    -----------------------------------------------------------------
      1. B(C   4,O   0)                  1.3607         0.623161   
      2. B(C   5,C   4)                  1.3763         0.657091   
      3. B(C   5,O   1)                  1.3608         0.622893   
      4. B(C   7,C   6)                  1.4060         0.589196   
      5. B(C   7,N   3)                  1.4143         0.511737   
      6. B(C   8,C   6)                  1.3970         0.609040   
      7. B(C   8,C   4)                  1.3798         0.648545   
      8. B(C   9,C   7)                  1.3969         0.609059   
      9. B(C   9,C   5)                  1.3797         0.648884   
     10. B(C  10,O   1)                  1.4423         0.461794   
     11. B(C  10,O   0)                  1.4423         0.461863   
     12. B(C  11,C   6)                  1.4579         0.486874   
     13. B(C  11,O   2)                  1.2454         0.951890   
     14. B(C  12,C  11)                  1.5230         0.383285   
     15. B(H  13,C   8)                  1.0844         0.367601   
     16. B(H  14,C   9)                  1.0852         0.366571   
     17. B(H  15,C  10)                  1.0961         0.352103   
     18. B(H  16,C  10)                  1.0961         0.352180   
     19. B(H  17,N   3)                  1.0116         0.430137   
     20. B(H  18,N   3)                  1.0103         0.432298   
     21. B(H  19,C  12)                  1.0926         0.356632   
     22. B(H  20,C  12)                  1.0934         0.355693   
     23. B(H  21,C  12)                  1.0944         0.354374   
     24. A(C   4,O   0,C  10)          101.0252         0.406893   
     25. A(C   5,O   1,C  10)          101.0078         0.406852   
     26. A(C   7,N   3,H  17)          119.6028         0.346858   
     27. A(H  17,N   3,H  18)          119.4298         0.302922   
     28. A(C   7,N   3,H  18)          120.9489         0.347151   
     29. A(O   0,C   4,C   5)          112.3108         0.436156   
     30. A(C   5,C   4,C   8)          121.7476         0.442214   
     31. A(O   0,C   4,C   8)          125.9416         0.435129   
     32. A(C   4,C   5,C   9)          121.7418         0.442256   
     33. A(O   1,C   5,C   4)          112.3304         0.436122   
     34. A(O   1,C   5,C   9)          125.9278         0.435136   
     35. A(C   7,C   6,C   8)          120.5976         0.428735   
     36. A(C   8,C   6,C  11)          118.3828         0.414379   
     37. A(C   7,C   6,C  11)          121.0196         0.411948   
     38. A(N   3,C   7,C   6)          120.5315         0.412922   
     39. A(C   6,C   7,C   9)          120.6022         0.428737   
     40. A(N   3,C   7,C   9)          118.8663         0.415362   
     41. A(C   4,C   8,C   6)          117.6526         0.436195   
     42. A(C   6,C   8,H  13)          122.5949         0.353075   
     43. A(C   4,C   8,H  13)          119.7474         0.356858   
     44. A(C   5,C   9,C   7)          117.6583         0.436239   
     45. A(C   7,C   9,H  14)          121.5687         0.352909   
     46. A(C   5,C   9,H  14)          120.7730         0.356720   
     47. A(O   0,C  10,O   1)          113.3257         0.386046   
     48. A(H  15,C  10,H  16)          108.7282         0.288808   
     49. A(O   1,C  10,H  16)          108.6728         0.332625   
     50. A(O   0,C  10,H  16)          108.6765         0.332633   
     51. A(O   1,C  10,H  15)          108.6779         0.332613   
     52. A(O   0,C  10,H  15)          108.6714         0.332621   
     53. A(C   6,C  11,C  12)          120.1541         0.382000   
     54. A(O   2,C  11,C  12)          118.5283         0.427206   
     55. A(O   2,C  11,C   6)          121.3176         0.446024   
     56. A(H  20,C  12,H  21)          107.3805         0.289549   
     57. A(H  19,C  12,H  21)          109.4278         0.289668   
     58. A(C  11,C  12,H  21)          108.9830         0.324832   
     59. A(H  19,C  12,H  20)          110.4775         0.289837   
     60. A(C  11,C  12,H  20)          110.8722         0.325031   
     61. A(C  11,C  12,H  19)          109.6501         0.325172   
     62. D(C   5,C   4,O   0,C  10)      0.0304         0.028512   
     63. D(C   8,C   4,O   0,C  10)    179.9926         0.028512   
     64. D(O   1,C   5,C   4,C   8)   -179.9503         0.030109   
     65. D(C   9,C   5,C   4,O   0)    179.9555         0.030109   
     66. D(C   9,C   5,C   4,C   8)     -0.0085         0.030109   
     67. D(O   1,C   5,C   4,O   0)      0.0136         0.030109   
     68. D(C   4,C   5,O   1,C  10)     -0.0501         0.028486   
     69. D(C   9,C   5,O   1,C  10)   -179.9891         0.028486   
     70. D(N   3,C   7,C   6,C  11)     -0.0254         0.023887   
     71. D(C   9,C   7,N   3,H  18)    178.5737         0.020736   
     72. D(C   9,C   7,C   6,C   8)      0.0112         0.023887   
     73. D(N   3,C   7,C   6,C   8)    179.9715         0.023887   
     74. D(C   9,C   7,N   3,H  17)      0.1433         0.020736   
     75. D(C   6,C   7,N   3,H  18)     -1.3874         0.020736   
     76. D(C   6,C   7,N   3,H  17)   -179.8177         0.020736   
     77. D(C   9,C   7,C   6,C  11)   -179.9858         0.023887   
     78. D(H  13,C   8,C   6,C  11)     -0.8522         0.025613   
     79. D(C   4,C   8,C   6,C  11)    179.9745         0.025613   
     80. D(C   4,C   8,C   6,C   7)     -0.0225         0.025613   
     81. D(H  13,C   8,C   4,C   5)   -179.1765         0.029277   
     82. D(C   6,C   8,C   4,C   5)      0.0214         0.029277   
     83. D(H  13,C   8,C   6,C   7)    179.1508         0.025613   
     84. D(C   6,C   8,C   4,O   0)   -179.9375         0.029277   
     85. D(H  13,C   8,C   4,O   0)      0.8647         0.029277   
     86. D(C   5,C   9,C   7,C   6)      0.0022         0.025615   
     87. D(C   5,C   9,C   7,N   3)   -179.9588         0.025615   
     88. D(H  14,C   9,C   5,C   4)   -179.9747         0.029309   
     89. D(H  14,C   9,C   5,O   1)     -0.0411         0.029309   
     90. D(C   7,C   9,C   5,C   4)     -0.0037         0.029309   
     91. D(H  14,C   9,C   7,N   3)      0.0119         0.025615   
     92. D(C   7,C   9,C   5,O   1)    179.9299         0.029309   
     93. D(H  14,C   9,C   7,C   6)    179.9730         0.025615   
     94. D(H  16,C  10,O   1,C   5)    120.9906         0.016801   
     95. D(H  15,C  10,O   1,C   5)   -120.8448         0.016801   
     96. D(O   0,C  10,O   1,C   5)      0.0714         0.016801   
     97. D(H  16,C  10,O   0,C   4)   -120.9812         0.016807   
     98. D(H  15,C  10,O   0,C   4)    120.8558         0.016807   
     99. D(O   1,C  10,O   0,C   4)     -0.0641         0.016807   
    100. D(C  12,C  11,C   6,C   8)    -30.0036         0.016140   
    101. D(C  12,C  11,C   6,C   7)    149.9934         0.016140   
    102. D(O   2,C  11,C   6,C   8)    149.9695         0.016140   
    103. D(O   2,C  11,C   6,C   7)    -30.0335         0.016140   
    104. D(H  21,C  12,C  11,C   6)   -151.5034         0.010951   
    105. D(H  21,C  12,C  11,O   2)     28.5228         0.010951   
    106. D(H  20,C  12,C  11,C   6)    -33.5177         0.010951   
    107. D(H  20,C  12,C  11,O   2)    146.5085         0.010951   
    108. D(H  19,C  12,C  11,C   6)     88.7391         0.010951   
    109. D(H  19,C  12,C  11,O   2)    -91.2347         0.010951   
    -----------------------------------------------------------------

Number of atoms                         .... 22
Number of degrees of freedom            .... 109

         *************************************************************
         *                GEOMETRY OPTIMIZATION CYCLE   1            *
         *************************************************************
---------------------------------
CARTESIAN COORDINATES (ANGSTROEM)
---------------------------------
  O      2.349100    1.523000   -0.117700
  O      2.937200   -0.807600    0.055600
  O     -3.334500   -0.155700   -0.537400
  N     -1.716000   -2.198500    0.150200
  C      1.254400    0.716800   -0.061000
  C      1.590300   -0.614200    0.037800
  C     -1.053200    0.152700   -0.023100
  C     -0.710000   -1.207000    0.077800
  C     -0.060700    1.133200   -0.094100
  C      0.629600   -1.601900    0.109100
  C      3.411800    0.550700   -0.044300
  C     -2.448200    0.575000   -0.056200
  C     -2.849800    1.933400    0.503300
  H     -0.288500    2.189400   -0.186000
  H      0.912200   -2.646700    0.187100
  H      4.032300    0.640500   -0.943400
  H      4.029900    0.771900    0.833400
  H     -1.453200   -3.172500    0.225300
  H     -2.694400   -1.946800    0.151700
  H     -2.774400    2.690600   -0.280800
  H     -2.223100    2.203600    1.357500
  H     -3.883100    1.880200    0.859800

----------------------------
CARTESIAN COORDINATES (A.U.)
----------------------------
  NO LB      ZA    FRAG     MASS         X           Y           Z
   0 O     8.0000    0    15.999    4.439156    2.878053   -0.222421
   1 O     8.0000    0    15.999    5.550504   -1.526143    0.105069
   2 O     8.0000    0    15.999   -6.301292   -0.294230   -1.015539
   3 N     7.0000    0    14.007   -3.242770   -4.154563    0.283837
   4 C     6.0000    0    12.011    2.370472    1.354556   -0.115273
   5 C     6.0000    0    12.011    3.005231   -1.160670    0.071432
   6 C     6.0000    0    12.011   -1.990260    0.288561   -0.043653
   7 C     6.0000    0    12.011   -1.341706   -2.280899    0.147021
   8 C     6.0000    0    12.011   -0.114706    2.141438   -0.177823
   9 C     6.0000    0    12.011    1.189772   -3.027152    0.206169
  10 C     6.0000    0    12.011    6.447368    1.040672   -0.083715
  11 C     6.0000    0    12.011   -4.626428    1.086593   -0.106203
  12 C     6.0000    0    12.011   -5.385342    3.653597    0.951099
  13 H     1.0000    0     1.008   -0.545186    4.137366   -0.351489
  14 H     1.0000    0     1.008    1.723808   -5.001538    0.353568
  15 H     1.0000    0     1.008    7.619943    1.210370   -1.782768
  16 H     1.0000    0     1.008    7.615407    1.458680    1.574898
  17 H     1.0000    0     1.008   -2.746150   -5.995156    0.425755
  18 H     1.0000    0     1.008   -5.091678   -3.678919    0.286671
  19 H     1.0000    0     1.008   -5.242856    5.084497   -0.530635
  20 H     1.0000    0     1.008   -4.201050    4.164201    2.565303
  21 H     1.0000    0     1.008   -7.337996    3.553063    1.624787

--------------------------------
INTERNAL COORDINATES (ANGSTROEM)
--------------------------------
 O      0   0   0     0.000000000000     0.00000000     0.00000000
 O      1   0   0     2.409894366980     0.00000000     0.00000000
 O      1   2   0     5.941169139151    88.01024129     0.00000000
 N      3   1   2     2.695434631001    67.77105678    10.04137321
 C      1   2   3     1.360713570154    67.68754966     5.09994208
 C      2   1   3     1.360830632371    67.67121677   354.90783388
 C      3   1   2     2.358801547396    12.16095374    40.87297516
 C      7   3   4     1.405969821867    97.19735205     7.01721751
 C      5   1   2     1.379845128991   125.94160204   179.95446223
 C      6   2   1     1.379702674492   125.92780653   180.05334048
 C      1   2   3     1.442250373548    33.33766285   185.16797856
 C      3   1   2     1.245392958066    29.08660788   133.69370797
 C     12   3   1     1.523014566575   118.52834583   156.49023941
 H      9   5   1     1.084387795025   119.74739513     0.86470135
 H     10   6   2     1.085151510159   120.77295612   359.95893221
 H     11   1   2     1.096113634620   108.67135545   120.91990852
 H     11   1   2     1.096053985897   108.67648071   239.08294619
 H      4   3   1     1.011622385082   154.77137850   203.97731888
 H      4   3   1     1.010258234314    39.64920145   162.94686053
 H     13  12   3     1.092634344143   109.65013723   268.76525466
 H     13  12   3     1.093351988154   110.87219323   146.50847371
 H     13  12   3     1.094363458820   108.98303874    28.52281963

---------------------------
INTERNAL COORDINATES (A.U.)
---------------------------
 O      0   0   0     0.000000000000     0.00000000     0.00000000
 O      1   0   0     4.554040365271     0.00000000     0.00000000
 O      1   2   0    11.227182588300    88.01024129     0.00000000
 N      3   1   2     5.093633264479    67.77105678    10.04137321
 C      1   2   3     2.571375994300    67.68754966     5.09994208
 C      2   1   3     2.571597209833    67.67121677   354.90783388
 C      3   1   2     4.457488928849    12.16095374    40.87297516
 C      7   3   4     2.656897915886    97.19735205     7.01721751
 C      5   1   2     2.607529401018   125.94160204   179.95446223
 C      6   2   1     2.607260201028   125.92780653   180.05334048
 C      1   2   3     2.725458222552    33.33766285   185.16797856
 C      3   1   2     2.353451619859    29.08660788   133.69370797
 C     12   3   1     2.878080428800   118.52834583   156.49023941
 H      9   5   1     2.049195955565   119.74739513     0.86470135
 H     10   6   2     2.050639168011   120.77295612   359.95893221
 H     11   1   2     2.071354581089   108.67135545   120.91990852
 H     11   1   2     2.071241861338   108.67648071   239.08294619
 H      4   3   1     1.911689258750   154.77137850   203.97731888
 H      4   3   1     1.909111387393    39.64920145   162.94686053
 H     13  12   3     2.064779674946   109.65013723   268.76525466
 H     13  12   3     2.066135825589   110.87219323   146.50847371
 H     13  12   3     2.068047228140   108.98303874    28.52281963

---------------------
BASIS SET INFORMATION
---------------------
There are 4 groups of distinct atoms

 Group   1 Type O   : 7s4p1d contracted to 3s2p1d pattern {511/31/1}
 Group   2 Type N   : 7s4p1d contracted to 3s2p1d pattern {511/31/1}
 Group   3 Type C   : 7s4p1d contracted to 3s2p1d pattern {511/31/1}
 Group   4 Type H   : 4s1p contracted to 2s1p pattern {31/1}

Atom   0O    basis set group =>   1
Atom   1O    basis set group =>   1
Atom   2O    basis set group =>   1
Atom   3N    basis set group =>   2
Atom   4C    basis set group =>   3
Atom   5C    basis set group =>   3
Atom   6C    basis set group =>   3
Atom   7C    basis set group =>   3
Atom   8C    basis set group =>   3
Atom   9C    basis set group =>   3
Atom  10C    basis set group =>   3
Atom  11C    basis set group =>   3
Atom  12C    basis set group =>   3
Atom  13H    basis set group =>   4
Atom  14H    basis set group =>   4
Atom  15H    basis set group =>   4
Atom  16H    basis set group =>   4
Atom  17H    basis set group =>   4
Atom  18H    basis set group =>   4
Atom  19H    basis set group =>   4
Atom  20H    basis set group =>   4
Atom  21H    basis set group =>   4
---------------------------------
AUXILIARY/J BASIS SET INFORMATION
---------------------------------
There are 4 groups of distinct atoms

 Group   1 Type O   : 12s5p4d2f1g contracted to 6s4p3d1f1g pattern {711111/2111/211/2/1}
 Group   2 Type N   : 12s5p4d2f1g contracted to 6s4p3d1f1g pattern {711111/2111/211/2/1}
 Group   3 Type C   : 12s5p4d2f1g contracted to 6s4p3d1f1g pattern {711111/2111/211/2/1}
 Group   4 Type H   : 5s2p1d contracted to 3s1p1d pattern {311/2/1}

Atom   0O    basis set group =>   1
Atom   1O    basis set group =>   1
Atom   2O    basis set group =>   1
Atom   3N    basis set group =>   2
Atom   4C    basis set group =>   3
Atom   5C    basis set group =>   3
Atom   6C    basis set group =>   3
Atom   7C    basis set group =>   3
Atom   8C    basis set group =>   3
Atom   9C    basis set group =>   3
Atom  10C    basis set group =>   3
Atom  11C    basis set group =>   3
Atom  12C    basis set group =>   3
Atom  13H    basis set group =>   4
Atom  14H    basis set group =>   4
Atom  15H    basis set group =>   4
Atom  16H    basis set group =>   4
Atom  17H    basis set group =>   4
Atom  18H    basis set group =>   4
Atom  19H    basis set group =>   4
Atom  20H    basis set group =>   4
Atom  21H    basis set group =>   4


           ************************************************************
           *        Program running with 8 parallel MPI-processes     *
           *              working on a common directory               *
           ************************************************************
------------------------------------------------------------------------------
                           ORCA GTO INTEGRAL CALCULATION
                           -- RI-GTO INTEGRALS CHOSEN --
------------------------------------------------------------------------------
------------------------------------------------------------------------------
                   ___                                                        
                  /   \      - P O W E R E D   B Y -                         
                 /     \                                                     
                 |  |  |   _    _      __       _____    __    __             
                 |  |  |  | |  | |    /  \     |  _  \  |  |  /  |          
                  \  \/   | |  | |   /    \    | | | |  |  | /  /          
                 / \  \   | |__| |  /  /\  \   | |_| |  |  |/  /          
                |  |  |   |  __  | /  /__\  \  |    /   |      \           
                |  |  |   | |  | | |   __   |  |    \   |  |\   \          
                \     /   | |  | | |  |  |  |  | |\  \  |  | \   \       
                 \___/    |_|  |_| |__|  |__|  |_| \__\ |__|  \__/        
                                                                              
                      - O R C A' S   B I G   F R I E N D -                    
                                      &                                       
                       - I N T E G R A L  F E E D E R -                       
                                                                              
 v1 FN, 2020, v2 2021                                                         
------------------------------------------------------------------------------


Reading SHARK input file /Users/armando/tmp/pubchem_120000_d3bj.SHARKINP.tmp ... ok
----------------------
SHARK INTEGRAL PACKAGE
----------------------

Number of atoms                             ...     22
Number of basis functions                   ...    227
Number of shells                            ...    105
Maximum angular momentum                    ...      2
Integral batch strategy                     ... SHARK/LIBINT Hybrid
RI-J (if used) integral strategy            ... SPLIT-RIJ (Revised 2003 algorithm where possible)
Printlevel                                  ...      1
Contraction scheme used                     ... SEGMENTED contraction
Coulomb Range Separation                    ... NOT USED
Exchange Range Separation                   ... NOT USED
Finite Nucleus Model                        ... NOT USED
Auxiliary Coulomb fitting basis             ... AVAILABLE
   # of basis functions in Aux-J            ...    736
   # of shells in Aux-J                     ...    240
   Maximum angular momentum in Aux-J        ...      4
Auxiliary J/K fitting basis                 ... NOT available
Auxiliary Correlation fitting basis         ... NOT available
Auxiliary 'external' fitting basis          ... NOT available
Integral threshold                          ...     2.500000e-11
Primitive cut-off                           ...     2.500000e-12
Primitive pair pre-selection threshold      ...     2.500000e-12

Calculating pre-screening integrals         ... done (  0.0 sec) Dimension = 105
Organizing shell pair data                  ... done (  0.0 sec)
Shell pair information
Total number of shell pairs                 ...      5565
Shell pairs after pre-screening             ...      4789
Total number of primitive shell pairs       ...     20497
Primitive shell pairs kept                  ...     12211
          la=0 lb=0:   1433 shell pairs
          la=1 lb=0:   1738 shell pairs
          la=1 lb=1:    546 shell pairs
          la=2 lb=0:    617 shell pairs
          la=2 lb=1:    380 shell pairs
          la=2 lb=2:     75 shell pairs

Calculating one electron integrals          ... done (  0.0 sec)
Calculating RI/J V-Matrix + Cholesky decomp.... done (  0.1 sec)
Calculating Nuclear repulsion               ... done (  0.0 sec) ENN=    781.478023373484 Eh

SHARK setup successfully completed in   0.2 seconds

Maximum memory used throughout the entire GTOINT-calculation: 12.9 MB


           ************************************************************
           *        Program running with 8 parallel MPI-processes     *
           *              working on a common directory               *
           ************************************************************
-------------------------------------------------------------------------------
                                 ORCA SCF
-------------------------------------------------------------------------------

------------
SCF SETTINGS
------------
Hamiltonian:
 Density Functional     Method          .... DFT(GTOs)
 Exchange Functional    Exchange        .... B88
   X-Alpha parameter    XAlpha          ....  0.666667
   Becke's b parameter  XBeta           ....  0.004200
 Correlation Functional Correlation     .... LYP
 LDA part of GGA corr.  LDAOpt          .... VWN-3
 Gradients option       PostSCFGGA      .... off
 Hybrid DFT is turned on
   Fraction HF Exchange ScalHFX         ....  0.200000
   Scaling of DF-GGA-X  ScalDFX         ....  0.720000
   Scaling of DF-GGA-C  ScalDFC         ....  0.810000
   Scaling of DF-LDA-C  ScalLDAC        ....  1.000000
   Perturbative correction              ....  0.000000
   Density functional embedding theory  .... OFF
   NL short-range parameter             ....  4.800000
 RI-approximation to the Coulomb term is turned on
   Number of AuxJ basis functions       .... 736
   RIJ-COSX (HFX calculated with COS-X)).... on


General Settings:
 Integral files         IntName         .... /Users/armando/tmp/pubchem_120000_d3bj
 Hartree-Fock type      HFTyp           .... RHF
 Total Charge           Charge          ....    0
 Multiplicity           Mult            ....    1
 Number of Electrons    NEL             ....   94
 Basis Dimension        Dim             ....  227
 Nuclear Repulsion      ENuc            ....    781.4780233735 Eh

Convergence Acceleration:
 DIIS                   CNVDIIS         .... on
   Start iteration      DIISMaxIt       ....    12
   Startup error        DIISStart       ....  0.200000
   # of expansion vecs  DIISMaxEq       ....     5
   Bias factor          DIISBfac        ....   1.050
   Max. coefficient     DIISMaxC        ....  10.000
 Trust-Rad. Augm. Hess. CNVTRAH         .... auto
   Auto Start mean grad. ratio tolernc. ....  1.125000
   Auto Start start iteration           ....    20
   Auto Start num. interpolation iter.  ....    10
   Max. Number of Micro iterations      ....    16
   Max. Number of Macro iterations      .... Maxiter - #DIIS iter
   Number of Davidson start vectors     ....     2
   Converg. threshold I  (grad. norm)   ....   1.000e-05
   Converg. threshold II (energy diff.) ....   1.000e-08
   Grad. Scal. Fac. for Micro threshold ....   0.100
   Minimum threshold for Micro iter.    ....   0.010
   NR start threshold (gradient norm)   ....   0.001
   Initial trust radius                 ....   0.400
   Minimum AH scaling param. (alpha)    ....   1.000
   Maximum AH scaling param. (alpha)    .... 1000.000
   Orbital update algorithm             .... Taylor
   White noise on init. David. guess    .... on
   Maximum white noise                  ....   0.010
   Quad. conv. algorithm                .... NR
 SOSCF                  CNVSOSCF        .... on
   Start iteration      SOSCFMaxIt      ....   150
   Startup grad/error   SOSCFStart      ....  0.003300
 Level Shifting         CNVShift        .... on
   Level shift para.    LevelShift      ....    0.2500
   Turn off err/grad.   ShiftErr        ....    0.0010
 Zerner damping         CNVZerner       .... off
 Static damping         CNVDamp         .... on
   Fraction old density DampFac         ....    0.7000
   Max. Damping (<1)    DampMax         ....    0.9800
   Min. Damping (>=0)   DampMin         ....    0.0000
   Turn off err/grad.   DampErr         ....    0.1000
 Fernandez-Rico         CNVRico         .... off

SCF Procedure:
 Maximum # iterations   MaxIter         ....   125
 SCF integral mode      SCFMode         .... Direct
   Integral package                     .... SHARK and LIBINT hybrid scheme
 Reset frequency        DirectResetFreq ....    20
 Integral Threshold     Thresh          ....  2.500e-11 Eh
 Primitive CutOff       TCut            ....  2.500e-12 Eh

Convergence Tolerance:
 Convergence Check Mode ConvCheckMode   .... Total+1el-Energy
 Convergence forced     ConvForced      .... 0
 Energy Change          TolE            ....  1.000e-08 Eh
 1-El. energy change                    ....  1.000e-05 Eh
 Orbital Gradient       TolG            ....  1.000e-05
 Orbital Rotation angle TolX            ....  1.000e-05
 DIIS Error             TolErr          ....  5.000e-07


Diagonalization of the overlap matrix:
Smallest eigenvalue                        ... 1.867e-04
Time for diagonalization                   ...    0.008 sec
Threshold for overlap eigenvalues          ... 1.000e-08
Number of eigenvalues below threshold      ... 0
Time for construction of square roots      ...    0.006 sec
Total time needed                          ...    0.014 sec

Time for model grid setup =    0.151 sec

------------------------------
INITIAL GUESS: MODEL POTENTIAL
------------------------------
Loading Hartree-Fock densities                     ... done
Calculating cut-offs                               ... done
Initializing the effective Hamiltonian             ... done
Setting up the integral package (SHARK)            ... done
Starting the Coulomb interaction                   ... done (   0.0 sec)
Reading the grid                                   ... done
Mapping shells                                     ... done
Starting the XC term evaluation                    ... done (   0.0 sec)
  promolecular density results
     # of electrons  =     93.997252969
     EX              =    -80.171361824
     EC              =     -3.249148410
     EX+EC           =    -83.420510233
Transforming the Hamiltonian                       ... done (   0.0 sec)
Diagonalizing the Hamiltonian                      ... done (   0.0 sec)
Back transforming the eigenvectors                 ... done (   0.0 sec)
Now organizing SCF variables                       ... done
                      ------------------
                      INITIAL GUESS DONE (   0.3 sec)
                      ------------------
-------------------
DFT GRID GENERATION
-------------------

General Integration Accuracy     IntAcc      ... 4.388
Radial Grid Type                 RadialGrid  ... OptM3 with GC (2021)
Angular Grid (max. ang.)         AngularGrid ... 4 (Lebedev-302)
Angular grid pruning method      GridPruning ... 4 (adaptive)
Weight generation scheme         WeightScheme... Becke
Basis function cutoff            BFCut       ... 1.0000e-11
Integration weight cutoff        WCut        ... 1.0000e-14
Angular grids for H and He will be reduced by one unit
Partially contracted basis set               ... off
Rotationally invariant grid construction     ... off

Total number of grid points                  ...   106952
Total number of batches                      ...     1682
Average number of points per batch           ...       63
Average number of grid points per atom       ...     4861
Time for grid setup =    0.578 sec

--------------------
COSX GRID GENERATION
--------------------

GRIDX 1
-------
General Integration Accuracy     IntAcc      ... 3.816
Radial Grid Type                 RadialGrid  ... OptM3 with GC (2021)
Angular Grid (max. ang.)         AngularGrid ... 1 (Lebedev-50)
Angular grid pruning method      GridPruning ... 4 (adaptive)
Weight generation scheme         WeightScheme... Becke
Basis function cutoff            BFCut       ... 1.0000e-11
Integration weight cutoff        WCut        ... 1.0000e-14
Angular grids for H and He will be reduced by one unit
Partially contracted basis set               ... on
Rotationally invariant grid construction     ... off

Total number of grid points                  ...    13640
Total number of batches                      ...      223
Average number of points per batch           ...       61
Average number of grid points per atom       ...      620
UseSFitting                                  ... on

GRIDX 2
-------
General Integration Accuracy     IntAcc      ... 4.020
Radial Grid Type                 RadialGrid  ... OptM3 with GC (2021)
Angular Grid (max. ang.)         AngularGrid ... 2 (Lebedev-110)
Angular grid pruning method      GridPruning ... 4 (adaptive)
Weight generation scheme         WeightScheme... Becke
Basis function cutoff            BFCut       ... 1.0000e-11
Integration weight cutoff        WCut        ... 1.0000e-14
Angular grids for H and He will be reduced by one unit
Partially contracted basis set               ... on
Rotationally invariant grid construction     ... off

Total number of grid points                  ...    30018
Total number of batches                      ...      479
Average number of points per batch           ...       62
Average number of grid points per atom       ...     1364
UseSFitting                                  ... on

GRIDX 3
-------
General Integration Accuracy     IntAcc      ... 4.338
Radial Grid Type                 RadialGrid  ... OptM3 with GC (2021)
Angular Grid (max. ang.)         AngularGrid ... 3 (Lebedev-194)
Angular grid pruning method      GridPruning ... 4 (adaptive)
Weight generation scheme         WeightScheme... Becke
Basis function cutoff            BFCut       ... 1.0000e-11
Integration weight cutoff        WCut        ... 1.0000e-14
Angular grids for H and He will be reduced by one unit
Partially contracted basis set               ... on
Rotationally invariant grid construction     ... off

Total number of grid points                  ...    65881
Total number of batches                      ...     1039
Average number of points per batch           ...       63
Average number of grid points per atom       ...     2995
UseSFitting                                  ... on

Time for X-Grid setup             =    0.653 sec

--------------
SCF ITERATIONS
--------------
ITER       Energy         Delta-E        Max-DP      RMS-DP      [F,P]     Damp
               ***  Starting incremental Fock matrix formation  ***
  0   -627.9919829483   0.000000000000 0.09398495  0.00259670  0.2539384 0.7000
  1   -628.1411614432  -0.149178494821 0.05473667  0.00171959  0.1049122 0.7000
                               ***Turning on DIIS***
  2   -628.1985155000  -0.057354056794 0.07560759  0.00284349  0.0387012 0.0000
  3   -628.2903162610  -0.091800761027 0.04434080  0.00114979  0.0578032 0.0000
  4   -628.3095507561  -0.019234495086 0.01164574  0.00035069  0.0131674 0.0000
  5   -628.3110059678  -0.001455211712 0.00520818  0.00012966  0.0064355 0.0000
                      *** Initiating the SOSCF procedure ***
                           *** Shutting down DIIS ***
                      *** Re-Reading the Fockian *** 
                      *** Removing any level shift *** 
ITER      Energy       Delta-E        Grad      Rot      Max-DP    RMS-DP
  6   -628.31111351  -0.0001075424  0.000471  0.000471  0.001450  0.000046
               *** Restarting incremental Fock matrix formation ***
  7   -628.31119939  -0.0000858768  0.000134  0.000927  0.001234  0.000033
  8   -628.31120057  -0.0000011832  0.000153  0.000569  0.000536  0.000014
  9   -628.31120147  -0.0000008971  0.000098  0.000335  0.000440  0.000010
 10   -628.31120158  -0.0000001114  0.000041  0.000090  0.000141  0.000004
 11   -628.31120167  -0.0000000907  0.000022  0.000085  0.000079  0.000003
 12   -628.31120168  -0.0000000077  0.000013  0.000021  0.000057  0.000001
 13   -628.31120168  -0.0000000002  0.000008  0.000026  0.000032  0.000001
 14   -628.31120168  -0.0000000061  0.000006  0.000011  0.000012  0.000000
 15   -628.31120168   0.0000000035  0.000003  0.000010  0.000011  0.000000
                  ***Gradient check signals convergence***
              ***Rediagonalizing the Fockian in SOSCF/NRSCF***

               *****************************************************
               *                     SUCCESS                       *
               *           SCF CONVERGED AFTER  16 CYCLES          *
               *****************************************************

Old exchange energy                            =    -16.220496613 Eh
New exchange energy                            =    -16.220484086 Eh
Exchange energy change after final integration =      0.000012527 Eh
Total energy after final integration           =   -628.311189148 Eh
Final COS-X integration done in                =     1.781 sec

----------------
TOTAL SCF ENERGY
----------------

Total Energy       :         -628.31118915 Eh          -17097.21666 eV

Components:
Nuclear Repulsion  :          781.47802337 Eh           21265.09811 eV
Electronic Energy  :        -1409.78921252 Eh          -38362.31478 eV
One Electron Energy:        -2405.47363147 Eh          -65456.26524 eV
Two Electron Energy:          995.68441895 Eh           27093.95047 eV
Max COSX asymmetry :            0.00000247 Eh               0.00007 eV

Virial components:
Potential Energy   :        -1250.88355276 Eh          -34038.27194 eV
Kinetic Energy     :          622.57236362 Eh           16941.05528 eV
Virial Ratio       :            2.00921793


DFT components:
N(Alpha)           :       47.000025380149 electrons
N(Beta)            :       47.000025380149 electrons
N(Total)           :       94.000050760298 electrons
E(X)               :      -64.515520510821 Eh       
E(C)               :       -4.171320314571 Eh       
E(XC)              :      -68.686840825392 Eh       
DFET-embed. en.    :        0.000000000000 Eh       

---------------
SCF CONVERGENCE
---------------

  Last Energy change         ...    5.0273e-09  Tolerance :   1.0000e-08
  Last MAX-Density change    ...    7.5495e-15  Tolerance :   1.0000e-07
  Last RMS-Density change    ...    6.7083e-17  Tolerance :   5.0000e-09
  Last Orbital Gradient      ...    1.1043e-06  Tolerance :   1.0000e-05
  Last Orbital Rotation      ...    2.3306e-06  Tolerance :   1.0000e-05

             **** THE GBW FILE WAS UPDATED (/Users/armando/tmp/pubchem_120000_d3bj.gbw) ****
             **** DENSITY /Users/armando/tmp/pubchem_120000_d3bj.scfp WAS UPDATED ****
             **** ENERGY FILE WAS UPDATED (/Users/armando/tmp/pubchem_120000_d3bj.en.tmp) ****
             **** THE GBW FILE WAS UPDATED (/Users/armando/tmp/pubchem_120000_d3bj.gbw) ****
             **** DENSITY /Users/armando/tmp/pubchem_120000_d3bj.scfp WAS UPDATED ****
----------------
ORBITAL ENERGIES
----------------

  NO   OCC          E(Eh)            E(eV) 
   0   2.0000     -19.192677      -522.2593 
   1   2.0000     -19.182238      -521.9752 
   2   2.0000     -19.108781      -519.9764 
   3   2.0000     -14.327093      -389.8600 
   4   2.0000     -10.309971      -280.5486 
   5   2.0000     -10.266370      -279.3621 
   6   2.0000     -10.256747      -279.1003 
   7   2.0000     -10.241455      -278.6841 
   8   2.0000     -10.241129      -278.6753 
   9   2.0000     -10.199675      -277.5473 
  10   2.0000     -10.192239      -277.3449 
  11   2.0000     -10.187004      -277.2025 
  12   2.0000     -10.186740      -277.1953 
  13   2.0000      -1.128025       -30.6951 
  14   2.0000      -1.041694       -28.3459 
  15   2.0000      -1.007403       -27.4128 
  16   2.0000      -0.901237       -24.5239 
  17   2.0000      -0.845510       -23.0075 
  18   2.0000      -0.775970       -21.1152 
  19   2.0000      -0.741972       -20.1901 
  20   2.0000      -0.724839       -19.7239 
  21   2.0000      -0.680724       -18.5234 
  22   2.0000      -0.643171       -17.5016 
  23   2.0000      -0.626581       -17.0501 
  24   2.0000      -0.567205       -15.4344 
  25   2.0000      -0.547513       -14.8986 
  26   2.0000      -0.526530       -14.3276 
  27   2.0000      -0.524467       -14.2715 
  28   2.0000      -0.502790       -13.6816 
  29   2.0000      -0.469846       -12.7852 
  30   2.0000      -0.456385       -12.4189 
  31   2.0000      -0.448635       -12.2080 
  32   2.0000      -0.442998       -12.0546 
  33   2.0000      -0.438986       -11.9454 
  34   2.0000      -0.427450       -11.6315 
  35   2.0000      -0.411108       -11.1868 
  36   2.0000      -0.401084       -10.9140 
  37   2.0000      -0.399758       -10.8780 
  38   2.0000      -0.389099       -10.5879 
  39   2.0000      -0.382809       -10.4168 
  40   2.0000      -0.372326       -10.1315 
  41   2.0000      -0.360761        -9.8168 
  42   2.0000      -0.339516        -9.2387 
  43   2.0000      -0.280055        -7.6207 
  44   2.0000      -0.248071        -6.7504 
  45   2.0000      -0.238920        -6.5014 
  46   2.0000      -0.192433        -5.2364 
  47   0.0000      -0.048188        -1.3113 
  48   0.0000       0.002948         0.0802 
  49   0.0000       0.044118         1.2005 
  50   0.0000       0.065295         1.7768 
  51   0.0000       0.067878         1.8471 
  52   0.0000       0.071284         1.9397 
  53   0.0000       0.095408         2.5962 
  54   0.0000       0.113127         3.0783 
  55   0.0000       0.113188         3.0800 
  56   0.0000       0.119952         3.2641 
  57   0.0000       0.126991         3.4556 
  58   0.0000       0.128421         3.4945 
  59   0.0000       0.145297         3.9537 
  60   0.0000       0.156825         4.2674 
  61   0.0000       0.170506         4.6397 
  62   0.0000       0.177240         4.8230 
  63   0.0000       0.215579         5.8662 
  64   0.0000       0.250701         6.8219 
  65   0.0000       0.263283         7.1643 
  66   0.0000       0.277465         7.5502 
  67   0.0000       0.285913         7.7801 
  68   0.0000       0.289893         7.8884 
  69   0.0000       0.313280         8.5248 
  70   0.0000       0.332018         9.0347 
  71   0.0000       0.350363         9.5339 
  72   0.0000       0.375269        10.2116 
  73   0.0000       0.397074        10.8049 
  74   0.0000       0.402108        10.9419 
  75   0.0000       0.428088        11.6489 
  76   0.0000       0.431474        11.7410 
  77   0.0000       0.445470        12.1218 
  78   0.0000       0.451467        12.2850 
  79   0.0000       0.475104        12.9282 
  80   0.0000       0.490922        13.3587 
  81   0.0000       0.496312        13.5053 
  82   0.0000       0.509072        13.8525 
  83   0.0000       0.515271        14.0212 
  84   0.0000       0.522766        14.2252 
  85   0.0000       0.533793        14.5252 
  86   0.0000       0.555034        15.1032 
  87   0.0000       0.575654        15.6643 
  88   0.0000       0.578526        15.7425 
  89   0.0000       0.582881        15.8610 
  90   0.0000       0.601304        16.3623 
  91   0.0000       0.608240        16.5510 
  92   0.0000       0.609242        16.5783 
  93   0.0000       0.632042        17.1987 
  94   0.0000       0.639596        17.4043 
  95   0.0000       0.646523        17.5928 
  96   0.0000       0.659672        17.9506 
  97   0.0000       0.664578        18.0841 
  98   0.0000       0.670918        18.2566 
  99   0.0000       0.680465        18.5164 
 100   0.0000       0.685150        18.6439 
 101   0.0000       0.703701        19.1487 
 102   0.0000       0.707851        19.2616 
 103   0.0000       0.724866        19.7246 
 104   0.0000       0.747107        20.3298 
 105   0.0000       0.755357        20.5543 
 106   0.0000       0.767134        20.8748 
 107   0.0000       0.793446        21.5908 
 108   0.0000       0.805408        21.9163 
 109   0.0000       0.808334        21.9959 
 110   0.0000       0.831908        22.6374 
 111   0.0000       0.858625        23.3644 
 112   0.0000       0.869514        23.6607 
 113   0.0000       0.892322        24.2813 
 114   0.0000       0.934425        25.4270 
 115   0.0000       0.943905        25.6850 
 116   0.0000       0.967455        26.3258 
 117   0.0000       0.998640        27.1744 
 118   0.0000       1.037620        28.2351 
 119   0.0000       1.039374        28.2828 
 120   0.0000       1.067311        29.0430 
 121   0.0000       1.076903        29.3040 
 122   0.0000       1.086426        29.5632 
 123   0.0000       1.124359        30.5954 
 124   0.0000       1.146317        31.1929 
 125   0.0000       1.178644        32.0725 
 126   0.0000       1.209883        32.9226 
 127   0.0000       1.233453        33.5639 
 128   0.0000       1.246179        33.9103 
 129   0.0000       1.257297        34.2128 
 130   0.0000       1.270693        34.5773 
 131   0.0000       1.312858        35.7247 
 132   0.0000       1.318276        35.8721 
 133   0.0000       1.337244        36.3883 
 134   0.0000       1.363730        37.1090 
 135   0.0000       1.371637        37.3241 
 136   0.0000       1.425818        38.7985 
 137   0.0000       1.456541        39.6345 
 138   0.0000       1.469273        39.9810 
 139   0.0000       1.474285        40.1173 
 140   0.0000       1.498716        40.7821 
 141   0.0000       1.514078        41.2002 
 142   0.0000       1.534104        41.7451 
 143   0.0000       1.578384        42.9500 
 144   0.0000       1.615021        43.9469 
 145   0.0000       1.635685        44.5093 
 146   0.0000       1.644135        44.7392 
 147   0.0000       1.657288        45.0971 
 148   0.0000       1.667511        45.3753 
 149   0.0000       1.691317        46.0231 
 150   0.0000       1.713723        46.6328 
 151   0.0000       1.726975        46.9934 
 152   0.0000       1.739806        47.3425 
 153   0.0000       1.745782        47.5051 
 154   0.0000       1.749971        47.6191 
 155   0.0000       1.761606        47.9357 
 156   0.0000       1.781350        48.4730 
 157   0.0000       1.790403        48.7193 
 158   0.0000       1.800547        48.9954 
 159   0.0000       1.821642        49.5694 
 160   0.0000       1.825937        49.6863 
 161   0.0000       1.827291        49.7231 
 162   0.0000       1.839507        50.0555 
 163   0.0000       1.867255        50.8106 
 164   0.0000       1.870106        50.8882 
 165   0.0000       1.888995        51.4022 
 166   0.0000       1.900809        51.7236 
 167   0.0000       1.920841        52.2687 
 168   0.0000       1.942737        52.8646 
 169   0.0000       1.945053        52.9276 
 170   0.0000       1.990508        54.1645 
 171   0.0000       2.003677        54.5228 
 172   0.0000       2.036927        55.4276 
 173   0.0000       2.075991        56.4906 
 174   0.0000       2.118977        57.6603 
 175   0.0000       2.146869        58.4193 
 176   0.0000       2.152423        58.5704 
 177   0.0000       2.158855        58.7454 
 178   0.0000       2.169664        59.0396 
 179   0.0000       2.212483        60.2047 
 180   0.0000       2.240988        60.9804 
 181   0.0000       2.246289        61.1246 
 182   0.0000       2.262215        61.5580 
 183   0.0000       2.271387        61.8076 
 184   0.0000       2.305771        62.7432 
 185   0.0000       2.322433        63.1966 
 186   0.0000       2.342065        63.7308 
 187   0.0000       2.363967        64.3268 
 188   0.0000       2.395891        65.1955 
 189   0.0000       2.414566        65.7037 
 190   0.0000       2.470308        67.2205 
 191   0.0000       2.500196        68.0338 
 192   0.0000       2.542708        69.1906 
 193   0.0000       2.562746        69.7359 
 194   0.0000       2.589245        70.4569 
 195   0.0000       2.634336        71.6839 
 196   0.0000       2.661502        72.4231 
 197   0.0000       2.683551        73.0231 
 198   0.0000       2.690381        73.2090 
 199   0.0000       2.696208        73.3676 
 200   0.0000       2.724754        74.1443 
 201   0.0000       2.727544        74.2203 
 202   0.0000       2.734274        74.4034 
 203   0.0000       2.768531        75.3356 
 204   0.0000       2.810180        76.4689 
 205   0.0000       2.821089        76.7657 
 206   0.0000       2.826882        76.9234 
 207   0.0000       2.879286        78.3494 
 208   0.0000       2.920471        79.4700 
 209   0.0000       2.941400        80.0396 
 210   0.0000       2.965921        80.7068 
 211   0.0000       2.995772        81.5191 
 212   0.0000       3.022803        82.2546 
 213   0.0000       3.027878        82.3927 
 214   0.0000       3.085224        83.9532 
 215   0.0000       3.120514        84.9135 
 216   0.0000       3.130724        85.1913 
 217   0.0000       3.155477        85.8649 
 218   0.0000       3.193699        86.9050 
 219   0.0000       3.217795        87.5606 
 220   0.0000       3.315100        90.2085 
 221   0.0000       3.376179        91.8705 
 222   0.0000       3.437444        93.5376 
 223   0.0000       3.508986        95.4844 
 224   0.0000       3.542068        96.3846 
 225   0.0000       3.626641        98.6859 
 226   0.0000       3.772956       102.6674 

                    ********************************
                    * MULLIKEN POPULATION ANALYSIS *
                    ********************************

-----------------------
MULLIKEN ATOMIC CHARGES
-----------------------
   0 O :   -0.306294
   1 O :   -0.298395
   2 O :   -0.271174
   3 N :   -0.089241
   4 C :    0.169747
   5 C :    0.180849
   6 C :    0.058417
   7 C :    0.082465
   8 C :   -0.125820
   9 C :   -0.130689
  10 C :    0.402915
  11 C :   -0.027877
  12 C :    0.066134
  13 H :   -0.030524
  14 H :   -0.048250
  15 H :    0.027633
  16 H :    0.027077
  17 H :    0.099709
  18 H :    0.123718
  19 H :    0.038679
  20 H :    0.022029
  21 H :    0.028891
Sum of atomic charges:   -0.0000000

--------------------------------
MULLIKEN REDUCED ORBITAL CHARGES
--------------------------------
  0 O s       :     3.757423  s :     3.757423
      pz      :     1.822619  p :     4.530722
      px      :     1.203241
      py      :     1.504861
      dz2     :     0.002369  d :     0.018150
      dxz     :     0.002299
      dyz     :     0.002539
      dx2y2   :     0.002884
      dxy     :     0.008060
  1 O s       :     3.759473  s :     3.759473
      pz      :     1.801316  p :     4.520766
      px      :     1.298508
      py      :     1.420942
      dz2     :     0.002358  d :     0.018155
      dxz     :     0.002739
      dyz     :     0.002046
      dx2y2   :     0.007012
      dxy     :     0.003999
  2 O s       :     3.769292  s :     3.769292
      pz      :     1.360526  p :     4.485802
      px      :     1.571136
      py      :     1.554140
      dz2     :     0.002480  d :     0.016080
      dxz     :     0.003671
      dyz     :     0.002270
      dx2y2   :     0.003019
      dxy     :     0.004640
  3 N s       :     3.294174  s :     3.294174
      pz      :     1.740433  p :     3.781393
      px      :     1.037626
      py      :     1.003334
      dz2     :     0.001685  d :     0.013674
      dxz     :     0.001202
      dyz     :     0.001127
      dx2y2   :     0.005387
      dxy     :     0.004273
  4 C s       :     2.954764  s :     2.954764
      pz      :     1.079471  p :     2.800242
      px      :     0.800647
      py      :     0.920124
      dz2     :     0.005781  d :     0.075248
      dxz     :     0.015098
      dyz     :     0.009520
      dx2y2   :     0.021928
      dxy     :     0.022921
  5 C s       :     2.983022  s :     2.983022
      pz      :     1.002578  p :     2.758397
      px      :     0.769381
      py      :     0.986439
      dz2     :     0.005784  d :     0.077732
      dxz     :     0.018068
      dyz     :     0.008897
      dx2y2   :     0.025655
      dxy     :     0.019328
  6 C s       :     3.063179  s :     3.063179
      pz      :     1.113088  p :     2.840185
      px      :     0.824185
      py      :     0.902912
      dz2     :     0.003321  d :     0.038220
      dxz     :     0.004282
      dyz     :     0.006271
      dx2y2   :     0.012744
      dxy     :     0.011601
  7 C s       :     3.004458  s :     3.004458
      pz      :     0.937177  p :     2.852541
      px      :     0.897792
      py      :     1.017573
      dz2     :     0.004435  d :     0.060536
      dxz     :     0.011826
      dyz     :     0.011147
      dx2y2   :     0.015154
      dxy     :     0.017975
  8 C s       :     3.379883  s :     3.379883
      pz      :     1.011395  p :     2.710362
      px      :     0.952788
      py      :     0.746179
      dz2     :     0.002819  d :     0.035576
      dxz     :     0.008447
      dyz     :     0.002916
      dx2y2   :     0.012074
      dxy     :     0.009320
  9 C s       :     3.384072  s :     3.384072
      pz      :     1.109869  p :     2.714684
      px      :     0.887478
      py      :     0.717336
      dz2     :     0.002834  d :     0.031933
      dxz     :     0.005655
      dyz     :     0.003197
      dx2y2   :     0.009372
      dxy     :     0.010876
 10 C s       :     2.965174  s :     2.965174
      pz      :     1.071041  p :     2.548028
      px      :     0.828210
      py      :     0.648777
      dz2     :     0.012338  d :     0.083882
      dxz     :     0.017435
      dyz     :     0.011654
      dx2y2   :     0.019138
      dxy     :     0.023318
 11 C s       :     3.189567  s :     3.189567
      pz      :     0.818872  p :     2.746646
      px      :     0.953251
      py      :     0.974524
      dz2     :     0.009170  d :     0.091664
      dxz     :     0.016518
      dyz     :     0.012558
      dx2y2   :     0.033182
      dxy     :     0.020236
 12 C s       :     2.926894  s :     2.926894
      pz      :     0.979568  p :     2.981724
      px      :     1.006896
      py      :     0.995260
      dz2     :     0.003117  d :     0.025249
      dxz     :     0.005526
      dyz     :     0.007079
      dx2y2   :     0.006837
      dxy     :     0.002691
 13 H s       :     1.007127  s :     1.007127
      pz      :     0.005153  p :     0.023397
      px      :     0.003868
      py      :     0.014375
 14 H s       :     1.024705  s :     1.024705
      pz      :     0.005588  p :     0.023545
      px      :     0.004060
      py      :     0.013897
 15 H s       :     0.952035  s :     0.952035
      pz      :     0.011841  p :     0.020332
      px      :     0.006464
      py      :     0.002027
 16 H s       :     0.952587  s :     0.952587
      pz      :     0.011480  p :     0.020335
      px      :     0.006442
      py      :     0.002413
 17 H s       :     0.855279  s :     0.855279
      pz      :     0.013820  p :     0.045012
      px      :     0.008541
      py      :     0.022650
 18 H s       :     0.828745  s :     0.828745
      pz      :     0.012581  p :     0.047537
      px      :     0.025104
      py      :     0.009852
 19 H s       :     0.936675  s :     0.936675
      pz      :     0.009661  p :     0.024646
      px      :     0.005465
      py      :     0.009520
 20 H s       :     0.954176  s :     0.954176
      pz      :     0.010842  p :     0.023794
      px      :     0.007993
      py      :     0.004959
 21 H s       :     0.947816  s :     0.947816
      pz      :     0.005699  p :     0.023293
      px      :     0.013560
      py      :     0.004034


                     *******************************
                     * LOEWDIN POPULATION ANALYSIS *
                     *******************************

----------------------
LOEWDIN ATOMIC CHARGES
----------------------
   0 O :   -0.114571
   1 O :   -0.101200
   2 O :   -0.200897
   3 N :   -0.025352
   4 C :   -0.013753
   5 C :    0.038114
   6 C :   -0.111371
   7 C :    0.067112
   8 C :   -0.025459
   9 C :   -0.085113
  10 C :    0.215585
  11 C :    0.091812
  12 C :   -0.070749
  13 H :    0.034598
  14 H :    0.030759
  15 H :    0.012252
  16 H :    0.012087
  17 H :    0.068406
  18 H :    0.064294
  19 H :    0.043754
  20 H :    0.029898
  21 H :    0.039795

-------------------------------
LOEWDIN REDUCED ORBITAL CHARGES
-------------------------------
  0 O s       :     3.472388  s :     3.472388
      pz      :     1.811438  p :     4.610169
      px      :     1.252924
      py      :     1.545807
      dz2     :     0.003963  d :     0.032013
      dxz     :     0.004192
      dyz     :     0.003049
      dx2y2   :     0.004752
      dxy     :     0.016058
  1 O s       :     3.474077  s :     3.474077
      pz      :     1.787902  p :     4.595347
      px      :     1.346492
      py      :     1.460953
      dz2     :     0.003960  d :     0.031776
      dxz     :     0.004312
      dyz     :     0.002578
      dx2y2   :     0.013257
      dxy     :     0.007671
  2 O s       :     3.563126  s :     3.563126
      pz      :     1.382387  p :     4.609974
      px      :     1.627323
      py      :     1.600264
      dz2     :     0.003544  d :     0.027797
      dxz     :     0.005946
      dyz     :     0.004055
      dx2y2   :     0.005153
      dxy     :     0.009100
  3 N s       :     3.030664  s :     3.030664
      pz      :     1.673599  p :     3.957542
      px      :     1.153746
      py      :     1.130197
      dz2     :     0.002625  d :     0.037145
      dxz     :     0.002250
      dyz     :     0.002168
      dx2y2   :     0.016557
      dxy     :     0.013545
  4 C s       :     2.824517  s :     2.824517
      pz      :     1.055302  p :     3.011545
      px      :     0.969783
      py      :     0.986459
      dz2     :     0.012704  d :     0.177691
      dxz     :     0.030149
      dyz     :     0.019529
      dx2y2   :     0.056180
      dxy     :     0.059129
  5 C s       :     2.830268  s :     2.830268
      pz      :     0.982057  p :     2.950918
      px      :     0.884694
      py      :     1.084167
      dz2     :     0.012540  d :     0.180700
      dxz     :     0.035503
      dyz     :     0.018608
      dx2y2   :     0.065710
      dxy     :     0.048339
  6 C s       :     2.840603  s :     2.840603
      pz      :     1.080299  p :     3.165019
      px      :     1.038048
      py      :     1.046672
      dz2     :     0.008574  d :     0.105748
      dxz     :     0.009019
      dyz     :     0.013227
      dx2y2   :     0.038648
      dxy     :     0.036279
  7 C s       :     2.832412  s :     2.832412
      pz      :     0.933173  p :     2.956939
      px      :     1.008026
      py      :     1.015740
      dz2     :     0.009423  d :     0.143536
      dxz     :     0.024115
      dyz     :     0.023091
      dx2y2   :     0.038903
      dxy     :     0.048004
  8 C s       :     2.850328  s :     2.850328
      pz      :     0.999313  p :     3.081604
      px      :     1.043715
      py      :     1.038576
      dz2     :     0.006651  d :     0.093528
      dxz     :     0.018316
      dyz     :     0.005346
      dx2y2   :     0.034820
      dxy     :     0.028396
  9 C s       :     2.849415  s :     2.849415
      pz      :     1.085033  p :     3.148969
      px      :     1.034247
      py      :     1.029689
      dz2     :     0.006919  d :     0.086729
      dxz     :     0.012190
      dyz     :     0.005509
      dx2y2   :     0.029445
      dxy     :     0.032665
 10 C s       :     2.852943  s :     2.852943
      pz      :     1.104214  p :     2.754409
      px      :     0.883360
      py      :     0.766834
      dz2     :     0.025640  d :     0.177063
      dxz     :     0.043476
      dyz     :     0.022109
      dx2y2   :     0.038411
      dxy     :     0.047428
 11 C s       :     2.877482  s :     2.877482
      pz      :     0.820614  p :     2.822625
      px      :     1.021458
      py      :     0.980554
      dz2     :     0.017787  d :     0.208081
      dxz     :     0.034722
      dyz     :     0.027528
      dx2y2   :     0.080060
      dxy     :     0.047984
 12 C s       :     2.844578  s :     2.844578
      pz      :     1.050930  p :     3.158838
      px      :     1.069062
      py      :     1.038846
      dz2     :     0.007982  d :     0.067334
      dxz     :     0.014287
      dyz     :     0.019188
      dx2y2   :     0.019001
      dxy     :     0.006875
 13 H s       :     0.894968  s :     0.894968
      pz      :     0.015857  p :     0.070433
      px      :     0.012749
      py      :     0.041827
 14 H s       :     0.898387  s :     0.898387
      pz      :     0.017863  p :     0.070854
      px      :     0.013084
      py      :     0.039907
 15 H s       :     0.922743  s :     0.922743
      pz      :     0.035537  p :     0.065005
      px      :     0.022119
      py      :     0.007348
 16 H s       :     0.922937  s :     0.922937
      pz      :     0.034349  p :     0.064976
      px      :     0.022022
      py      :     0.008605
 17 H s       :     0.808257  s :     0.808257
      pz      :     0.042629  p :     0.123337
      px      :     0.019508
      py      :     0.061200
 18 H s       :     0.798361  s :     0.798361
      pz      :     0.041832  p :     0.137345
      px      :     0.071036
      py      :     0.024478
 19 H s       :     0.888383  s :     0.888383
      pz      :     0.027020  p :     0.067863
      px      :     0.013132
      py      :     0.027711
 20 H s       :     0.902843  s :     0.902843
      pz      :     0.030087  p :     0.067260
      px      :     0.021842
      py      :     0.015330
 21 H s       :     0.894214  s :     0.894214
      pz      :     0.014683  p :     0.065990
      px      :     0.039061
      py      :     0.012247


                      *****************************
                      * MAYER POPULATION ANALYSIS *
                      *****************************

  NA   - Mulliken gross atomic population
  ZA   - Total nuclear charge
  QA   - Mulliken gross atomic charge
  VA   - Mayer's total valence
  BVA  - Mayer's bonded valence
  FA   - Mayer's free valence

  ATOM       NA         ZA         QA         VA         BVA        FA
  0 O      8.3063     8.0000    -0.3063     2.1818     2.1818    -0.0000
  1 O      8.2984     8.0000    -0.2984     2.2111     2.2111     0.0000
  2 O      8.2712     8.0000    -0.2712     2.2063     2.2063    -0.0000
  3 N      7.0892     7.0000    -0.0892     3.2311     3.2311    -0.0000
  4 C      5.8303     6.0000     0.1697     3.8782     3.8782    -0.0000
  5 C      5.8192     6.0000     0.1808     3.9139     3.9139    -0.0000
  6 C      5.9416     6.0000     0.0584     3.5242     3.5242    -0.0000
  7 C      5.9175     6.0000     0.0825     4.0867     4.0867    -0.0000
  8 C      6.1258     6.0000    -0.1258     3.8592     3.8592    -0.0000
  9 C      6.1307     6.0000    -0.1307     3.7431     3.7431    -0.0000
 10 C      5.5971     6.0000     0.4029     3.9042     3.9042    -0.0000
 11 C      6.0279     6.0000    -0.0279     4.2062     4.2062    -0.0000
 12 C      5.9339     6.0000     0.0661     3.8762     3.8762    -0.0000
 13 H      1.0305     1.0000    -0.0305     1.0045     1.0045    -0.0000
 14 H      1.0483     1.0000    -0.0483     0.9980     0.9980    -0.0000
 15 H      0.9724     1.0000     0.0276     0.9813     0.9813     0.0000
 16 H      0.9729     1.0000     0.0271     0.9813     0.9813    -0.0000
 17 H      0.9003     1.0000     0.0997     1.0034     1.0034     0.0000
 18 H      0.8763     1.0000     0.1237     1.0432     1.0432    -0.0000
 19 H      0.9613     1.0000     0.0387     0.9970     0.9970    -0.0000
 20 H      0.9780     1.0000     0.0220     0.9954     0.9954    -0.0000
 21 H      0.9711     1.0000     0.0289     1.0155     1.0155    -0.0000

  Mayer bond orders larger than 0.100000
B(  0-O ,  4-C ) :   1.0664 B(  0-O , 10-C ) :   0.9903 B(  1-O ,  5-C ) :   1.0958 
B(  1-O , 10-C ) :   0.9781 B(  2-O , 11-C ) :   2.0187 B(  3-N ,  7-C ) :   1.3081 
B(  3-N , 17-H ) :   0.9425 B(  3-N , 18-H ) :   0.9146 B(  4-C ,  5-C ) :   1.2928 
B(  4-C ,  8-C ) :   1.3914 B(  5-C ,  9-C ) :   1.3651 B(  6-C ,  7-C ) :   1.3116 
B(  6-C ,  8-C ) :   1.2520 B(  6-C , 11-C ) :   0.9772 B(  7-C ,  9-C ) :   1.2420 
B(  8-C ,  9-C ) :   0.1096 B(  8-C , 13-H ) :   1.0124 B(  9-C , 14-H ) :   1.0199 
B( 10-C , 15-H ) :   0.9585 B( 10-C , 16-H ) :   0.9584 B( 11-C , 12-C ) :   1.0547 
B( 12-C , 19-H ) :   0.9341 B( 12-C , 20-H ) :   0.9551 B( 12-C , 21-H ) :   0.9501 


-------
TIMINGS
-------

Total SCF time: 0 days 0 hours 0 min 18 sec 

Total time                  ....      18.563 sec
Sum of individual times     ....      18.073 sec  ( 97.4%)

Fock matrix formation       ....      16.100 sec  ( 86.7%)
  Split-RI-J                ....       1.435 sec  (  8.9% of F)
  Chain of spheres X        ....      11.586 sec  ( 72.0% of F)
  XC integration            ....       2.650 sec  ( 16.5% of F)
    Basis function eval.    ....       0.776 sec  ( 29.3% of XC)
    Density eval.           ....       0.432 sec  ( 16.3% of XC)
    XC-Functional eval.     ....       0.101 sec  (  3.8% of XC)
    XC-Potential eval.      ....       0.472 sec  ( 17.8% of XC)
Diagonalization             ....       0.110 sec  (  0.6%)
Density matrix formation    ....       0.013 sec  (  0.1%)
Population analysis         ....       0.030 sec  (  0.2%)
Initial guess               ....       0.112 sec  (  0.6%)
Orbital Transformation      ....       0.000 sec  (  0.0%)
Orbital Orthonormalization  ....       0.000 sec  (  0.0%)
DIIS solution               ....       0.162 sec  (  0.9%)
SOSCF solution              ....       0.165 sec  (  0.9%)
Grid generation             ....       1.381 sec  (  7.4%)

Maximum memory used throughout the entire SCF-calculation: 59.2 MB


-------------------------------------------------------------------------------
                          DFT DISPERSION CORRECTION                            
                                                                               
                              DFTD3 V3.1  Rev 1                                
                          USING Becke-Johnson damping                          
-------------------------------------------------------------------------------
Gaussians B3LYP functional is recognized, using regular B3LYP params
Active option DFTDOPT                   ...         4   

molecular C6(AA) [au] = 5275.399358 


            DFT-D V3
 parameters
 s6 scaling factor         :     1.0000 
 a1 scaling factor         :     0.3981 
 s8 scaling factor         :     1.9889 
 a2 scaling factor         :     4.4211 
 ad hoc parameters k1-k3   :    16.0000     1.3333    -4.0000 

 Edisp/kcal,au: -26.027381192579  -0.041477267662 
 E6   /kcal   : -12.171314965 
 E8   /kcal   : -13.856066228 
 % E8         :  53.236497846 

-------------------------   ----------------
Dispersion correction           -0.041477268
-------------------------   ----------------


-------------------------   --------------------
FINAL SINGLE POINT ENERGY      -628.352666415169
-------------------------   --------------------



           ************************************************************
           *        Program running with 8 parallel MPI-processes     *
           *              working on a common directory               *
           ************************************************************
------------------------------------------------------------------------------
                         ORCA SCF GRADIENT CALCULATION
------------------------------------------------------------------------------

 ... reading COSX grid (gridx3)
Gradient of the Kohn-Sham DFT energy:
Kohn-Sham wavefunction type      ... RKS
Hartree-Fock exchange scaling    ...    0.200
Number of operators              ...    1
Number of atoms                  ...   22
Basis set dimensions             ...  227
Integral neglect threshold       ... 2.5e-11
Integral primitive cutoff        ... 2.5e-12
SHARK Integral package           ... ON

Nuc. rep. gradient       (SHARK) ... done (  0.0 sec)
HCore & Overlap gradient (SHARK) ... done (  0.0 sec)
RI-J gradient            (SHARK) ... done (  0.3 sec)
COSX-gradient                    ... done (  2.0 sec)
Exchange-correlation gradient    ... done
Dispersion correction            ... done

------------------
CARTESIAN GRADIENT
------------------

   1   O   :   -0.017379900    0.027763972   -0.001520158
   2   O   :    0.011131227   -0.030506578    0.002303685
   3   O   :   -0.014232898   -0.014210542   -0.016330134
   4   N   :   -0.028563389   -0.016001218   -0.000918576
   5   C   :    0.025799364   -0.026517634    0.002820913
   6   C   :    0.006797144    0.031027962   -0.002586530
   7   C   :    0.008703385   -0.009854109   -0.002312509
   8   C   :    0.041867756    0.042401358    0.001205531
   9   C   :   -0.017948836    0.001304427   -0.003694816
  10   C   :   -0.009380921    0.000554610   -0.000794112
  11   C   :   -0.032455052   -0.012509874    0.001081057
  12   C   :    0.036308670    0.014277970    0.015066417
  13   C   :   -0.004486679    0.008885180   -0.003696610
  14   H   :    0.001689777   -0.002977255   -0.000435163
  15   H   :   -0.000885580    0.003492759   -0.000367822
  16   H   :   -0.002037094    0.000459642    0.005068016
  17   H   :   -0.001949536   -0.000385812   -0.005152885
  18   H   :   -0.000786309   -0.003620775   -0.001148105
  19   H   :   -0.001253902   -0.003540228    0.005627724
  20   H   :   -0.000281045   -0.006280592    0.002360829
  21   H   :   -0.004473954   -0.004860236   -0.000691057
  22   H   :    0.003811012    0.000966397    0.004104242

Difference to translation invariance:
           :   -0.0000067623   -0.0001305763   -0.0000100625

Difference to rotation invariance:
           :    0.0001199556   -0.0000121336   -0.0012419460

Norm of the cartesian gradient     ...    0.1173418380
RMS gradient                       ...    0.0144437818
MAX gradient                       ...    0.0424013582

-------
TIMINGS
-------

Total SCF gradient time            ...        3.762 sec

One electron gradient       ....       0.046 sec  (  1.2%)
RI-J Coulomb gradient       ....       0.273 sec  (  7.2%)
COSX gradient               ....       1.998 sec  ( 53.1%)
XC gradient                 ....       1.067 sec  ( 28.3%)

Maximum memory used throughout the entire SCFGRAD-calculation: 46.2 MB
------------------------------------------------------------------------------
                         ORCA GEOMETRY RELAXATION STEP
------------------------------------------------------------------------------

Reading the OPT-File                    .... done
Getting information on internals        .... done
Copying old internal coords+grads       .... done
Making the new internal coordinates     .... (new redundants).... done
Validating the new internal coordinates .... (new redundants).... done
Calculating the B-matrix                .... done
Calculating the G,G- and P matrices     .... done
Transforming gradient to internals      .... done
Projecting the internal gradient        .... done
Number of atoms                         ....  22
Number of internal coordinates          .... 109
Current Energy                          ....  -628.352666415 Eh
[...]
  14 H :   -0.045267
  15 H :    0.028159
  16 H :    0.029223
  17 H :    0.100747
  18 H :    0.133904
  19 H :    0.030862
  20 H :    0.031129
  21 H :    0.023705
Sum of atomic charges:   -0.0000000

--------------------------------
MULLIKEN REDUCED ORBITAL CHARGES
--------------------------------
  0 O s       :     3.744662  s :     3.744662
      pz      :     1.818936  p :     4.557465
      px      :     1.185537
      py      :     1.552992
      dz2     :     0.002296  d :     0.017254
      dxz     :     0.002399
      dyz     :     0.002347
      dx2y2   :     0.002505
      dxy     :     0.007706
  1 O s       :     3.742866  s :     3.742866
      pz      :     1.791080  p :     4.546029
      px      :     1.297430
      py      :     1.457519
      dz2     :     0.002300  d :     0.017468
      dxz     :     0.002823
      dyz     :     0.001925
      dx2y2   :     0.006671
      dxy     :     0.003750
  2 O s       :     3.746494  s :     3.746494
      pz      :     1.393856  p :     4.507509
      px      :     1.553695
      py      :     1.559957
      dz2     :     0.001824  d :     0.016274
      dxz     :     0.003110
      dyz     :     0.002028
      dx2y2   :     0.003601
      dxy     :     0.005712
  3 N s       :     3.268967  s :     3.268967
      pz      :     1.677585  p :     3.740687
      px      :     1.073229
      py      :     0.989873
      dz2     :     0.001651  d :     0.015245
      dxz     :     0.001502
      dyz     :     0.001402
      dx2y2   :     0.005420
      dxy     :     0.005270
  4 C s       :     2.958701  s :     2.958701
      pz      :     1.084429  p :     2.764037
      px      :     0.778020
      py      :     0.901588
      dz2     :     0.005546  d :     0.071529
      dxz     :     0.015370
      dyz     :     0.007786
      dx2y2   :     0.021204
      dxy     :     0.021624
  5 C s       :     2.998668  s :     2.998668
      pz      :     0.981376  p :     2.725930
      px      :     0.770200
      py      :     0.974353
      dz2     :     0.005691  d :     0.076511
      dxz     :     0.018228
      dyz     :     0.008595
      dx2y2   :     0.025869
      dxy     :     0.018128
  6 C s       :     3.079038  s :     3.079038
      pz      :     1.146428  p :     2.851863
      px      :     0.826175
      py      :     0.879260
      dz2     :     0.003210  d :     0.035187
      dxz     :     0.004008
      dyz     :     0.005228
      dx2y2   :     0.012072
      dxy     :     0.010669
  7 C s       :     3.043686  s :     3.043686
      pz      :     0.908415  p :     2.892443
      px      :     0.930639
      py      :     1.053389
      dz2     :     0.004449  d :     0.062996
      dxz     :     0.012027
      dyz     :     0.012156
      dx2y2   :     0.016369
      dxy     :     0.017994
  8 C s       :     3.372092  s :     3.372092
      pz      :     1.016615  p :     2.739216
      px      :     0.952052
      py      :     0.770549
      dz2     :     0.002823  d :     0.035004
      dxz     :     0.008868
      dyz     :     0.002594
      dx2y2   :     0.011719
      dxy     :     0.009000
  9 C s       :     3.361745  s :     3.361745
      pz      :     1.129566  p :     2.740296
      px      :     0.885288
      py      :     0.725442
      dz2     :     0.002813  d :     0.030673
      dxz     :     0.004972
      dyz     :     0.003194
      dx2y2   :     0.009200
      dxy     :     0.010495
 10 C s       :     2.976077  s :     2.976077
      pz      :     1.055249  p :     2.528748
      px      :     0.832237
      py      :     0.641262
      dz2     :     0.012663  d :     0.086629
      dxz     :     0.019039
      dyz     :     0.011523
      dx2y2   :     0.018868
      dxy     :     0.024535
 11 C s       :     3.172432  s :     3.172432
      pz      :     0.804309  p :     2.751514
      px      :     0.954341
      py      :     0.992864
      dz2     :     0.005044  d :     0.092860
      dxz     :     0.014969
      dyz     :     0.010511
      dx2y2   :     0.039079
      dxy     :     0.023257
 12 C s       :     2.920344  s :     2.920344
      pz      :     0.995815  p :     2.990920
      px      :     1.001267
      py      :     0.993838
      dz2     :     0.004969  d :     0.025026
      dxz     :     0.003495
      dyz     :     0.005413
      dx2y2   :     0.007658
      dxy     :     0.003491
 13 H s       :     1.004053  s :     1.004053
      pz      :     0.005077  p :     0.023324
      px      :     0.004029
      py      :     0.014218
 14 H s       :     1.021926  s :     1.021926
      pz      :     0.005617  p :     0.023341
      px      :     0.004025
      py      :     0.013700
 15 H s       :     0.951985  s :     0.951985
      pz      :     0.012220  p :     0.019856
      px      :     0.005527
      py      :     0.002109
 16 H s       :     0.950916  s :     0.950916
      pz      :     0.011108  p :     0.019861
      px      :     0.006836
      py      :     0.001917
 17 H s       :     0.854120  s :     0.854120
      pz      :     0.013039  p :     0.045132
      px      :     0.008779
      py      :     0.023315
 18 H s       :     0.814348  s :     0.814348
      pz      :     0.011589  p :     0.051748
      px      :     0.027408
      py      :     0.012752
 19 H s       :     0.945177  s :     0.945177
      pz      :     0.011144  p :     0.023961
      px      :     0.006029
      py      :     0.006788
 20 H s       :     0.944900  s :     0.944900
      pz      :     0.011263  p :     0.023972
      px      :     0.006407
      py      :     0.006301
 21 H s       :     0.953524  s :     0.953524
      pz      :     0.004656  p :     0.022772
      px      :     0.014473
      py      :     0.003643


                     *******************************
                     * LOEWDIN POPULATION ANALYSIS *
                     *******************************

----------------------
LOEWDIN ATOMIC CHARGES
----------------------
   0 O :   -0.121251
   1 O :   -0.101361
   2 O :   -0.195900
   3 N :    0.013284
   4 C :   -0.005304
   5 C :    0.051789
   6 C :   -0.127709
   7 C :    0.066044
   8 C :   -0.031763
   9 C :   -0.099124
  10 C :    0.210468
  11 C :    0.082288
  12 C :   -0.073738
  13 H :    0.034167
  14 H :    0.029817
  15 H :    0.012309
  16 H :    0.013073
  17 H :    0.071130
  18 H :    0.060644
  19 H :    0.037691
  20 H :    0.037993
  21 H :    0.035452

-------------------------------
LOEWDIN REDUCED ORBITAL CHARGES
-------------------------------
  0 O s       :     3.457240  s :     3.457240
      pz      :     1.806953  p :     4.632741
      px      :     1.239372
      py      :     1.586416
      dz2     :     0.003736  d :     0.031271
      dxz     :     0.004417
      dyz     :     0.002747
      dx2y2   :     0.004450
      dxy     :     0.015921
  1 O s       :     3.455893  s :     3.455893
      pz      :     1.775415  p :     4.613916
      px      :     1.347348
      py      :     1.491153
      dz2     :     0.003787  d :     0.031551
      dxz     :     0.004445
      dyz     :     0.002408
      dx2y2   :     0.013233
      dxy     :     0.007678
  2 O s       :     3.545323  s :     3.545323
      pz      :     1.390046  p :     4.622151
      px      :     1.613144
      py      :     1.618960
      dz2     :     0.003935  d :     0.028427
      dxz     :     0.003756
      dyz     :     0.002560
      dx2y2   :     0.006288
      dxy     :     0.011886
  3 N s       :     3.021374  s :     3.021374
      pz      :     1.611385  p :     3.923681
      px      :     1.179361
      py      :     1.132935
      dz2     :     0.003032  d :     0.041660
      dxz     :     0.002746
      dyz     :     0.002714
      dx2y2   :     0.017238
      dxy     :     0.015931
  4 C s       :     2.831464  s :     2.831464
      pz      :     1.063086  p :     3.004654
      px      :     0.964957
      py      :     0.976611
      dz2     :     0.012070  d :     0.169187
      dxz     :     0.030871
      dyz     :     0.015807
      dx2y2   :     0.055486
      dxy     :     0.054953
  5 C s       :     2.837730  s :     2.837730
      pz      :     0.963287  p :     2.932774
      px      :     0.884288
      py      :     1.085198
      dz2     :     0.012288  d :     0.177708
      dxz     :     0.036037
      dyz     :     0.017830
      dx2y2   :     0.066225
      dxy     :     0.045329
  6 C s       :     2.853254  s :     2.853254
      pz      :     1.117868  p :     3.177265
      px      :     1.030213
      py      :     1.029184
      dz2     :     0.008037  d :     0.097191
      dxz     :     0.008317
      dyz     :     0.010889
      dx2y2   :     0.036158
      dxy     :     0.033790
  7 C s       :     2.834865  s :     2.834865
      pz      :     0.907492  p :     2.950554
      px      :     1.015826
      py      :     1.027236
      dz2     :     0.009452  d :     0.148537
      dxz     :     0.024720
      dyz     :     0.025329
      dx2y2   :     0.041662
      dxy     :     0.047374
  8 C s       :     2.855687  s :     2.855687
      pz      :     1.001028  p :     3.084587
      px      :     1.044579
      py      :     1.038980
      dz2     :     0.006535  d :     0.091488
      dxz     :     0.018911
      dyz     :     0.004756
      dx2y2   :     0.033306
      dxy     :     0.027980
  9 C s       :     2.855737  s :     2.855737
      pz      :     1.103615  p :     3.159749
      px      :     1.025686
      py      :     1.030449
      dz2     :     0.006784  d :     0.083638
      dxz     :     0.010548
      dyz     :     0.005500
      dx2y2   :     0.029281
      dxy     :     0.031526
 10 C s       :     2.856405  s :     2.856405
      pz      :     1.094652  p :     2.747880
      px      :     0.893258
      py      :     0.759970
      dz2     :     0.026619  d :     0.185248
      dxz     :     0.047537
      dyz     :     0.021984
      dx2y2   :     0.037994
      dxy     :     0.051114
 11 C s       :     2.871209  s :     2.871209
      pz      :     0.789084  p :     2.834447
      px      :     1.024935
      py      :     1.020428
      dz2     :     0.011991  d :     0.212055
      dxz     :     0.029109
      dyz     :     0.017945
      dx2y2   :     0.096768
      dxy     :     0.056242
 12 C s       :     2.849100  s :     2.849100
      pz      :     1.059694  p :     3.157898
      px      :     1.068131
      py      :     1.030073
      dz2     :     0.013531  d :     0.066740
      dxz     :     0.008264
      dyz     :     0.014311
      dx2y2   :     0.021667
      dxy     :     0.008966
 13 H s       :     0.895391  s :     0.895391
      pz      :     0.015667  p :     0.070442
      px      :     0.012974
      py      :     0.041801
 14 H s       :     0.899935  s :     0.899935
      pz      :     0.017892  p :     0.070249
      px      :     0.013006
      py      :     0.039351
 15 H s       :     0.924477  s :     0.924477
      pz      :     0.037196  p :     0.063214
      px      :     0.018591
      py      :     0.007427
 16 H s       :     0.923749  s :     0.923749
      pz      :     0.033470  p :     0.063177
      px      :     0.022884
      py      :     0.006823
 17 H s       :     0.805255  s :     0.805255
      pz      :     0.040562  p :     0.123615
      px      :     0.021220
      py      :     0.061832
 18 H s       :     0.783503  s :     0.783503
      pz      :     0.038781  p :     0.155853
      px      :     0.080508
      py      :     0.036565
 19 H s       :     0.896026  s :     0.896026
      pz      :     0.030462  p :     0.066283
      px      :     0.015457
      py      :     0.020364
 20 H s       :     0.895758  s :     0.895758
      pz      :     0.030610  p :     0.066249
      px      :     0.016743
      py      :     0.018896
 21 H s       :     0.899029  s :     0.899029
      pz      :     0.011800  p :     0.065519
      px      :     0.042119
      py      :     0.011600


                      *****************************
                      * MAYER POPULATION ANALYSIS *
                      *****************************

  NA   - Mulliken gross atomic population
  ZA   - Total nuclear charge
  QA   - Mulliken gross atomic charge
  VA   - Mayer's total valence
  BVA  - Mayer's bonded valence
  FA   - Mayer's free valence

  ATOM       NA         ZA         QA         VA         BVA        FA
  0 O      8.3194     8.0000    -0.3194     2.1767     2.1767    -0.0000
  1 O      8.3064     8.0000    -0.3064     2.2150     2.2150    -0.0000
  2 O      8.2703     8.0000    -0.2703     2.2476     2.2476    -0.0000
  3 N      7.0249     7.0000    -0.0249     3.2993     3.2993    -0.0000
  4 C      5.7943     6.0000     0.2057     3.8413     3.8413    -0.0000
  5 C      5.8011     6.0000     0.1989     3.9211     3.9211    -0.0000
  6 C      5.9661     6.0000     0.0339     3.5186     3.5186    -0.0000
  7 C      5.9991     6.0000     0.0009     4.1011     4.1011    -0.0000
  8 C      6.1463     6.0000    -0.1463     3.8554     3.8554    -0.0000
  9 C      6.1327     6.0000    -0.1327     3.7388     3.7388    -0.0000
 10 C      5.5915     6.0000     0.4085     3.9063     3.9063    -0.0000
 11 C      6.0168     6.0000    -0.0168     4.2436     4.2436    -0.0000
 12 C      5.9363     6.0000     0.0637     3.9031     3.9031    -0.0000
 13 H      1.0274     1.0000    -0.0274     1.0102     1.0102    -0.0000
 14 H      1.0453     1.0000    -0.0453     0.9982     0.9982    -0.0000
 15 H      0.9718     1.0000     0.0282     0.9770     0.9770     0.0000
 16 H      0.9708     1.0000     0.0292     0.9772     0.9772    -0.0000
 17 H      0.8993     1.0000     0.1007     1.0035     1.0035    -0.0000
 18 H      0.8661     1.0000     0.1339     1.0601     1.0601    -0.0000
 19 H      0.9691     1.0000     0.0309     0.9928     0.9928    -0.0000
 20 H      0.9689     1.0000     0.0311     0.9927     0.9927    -0.0000
 21 H      0.9763     1.0000     0.0237     1.0177     1.0177    -0.0000

  Mayer bond orders larger than 0.100000
B(  0-O ,  4-C ) :   1.0523 B(  0-O , 10-C ) :   1.0013 B(  1-O ,  5-C ) :   1.1032 
B(  1-O , 10-C ) :   0.9707 B(  2-O , 11-C ) :   1.9641 B(  2-O , 18-H ) :   0.1251 
B(  3-N ,  7-C ) :   1.4063 B(  3-N , 17-H ) :   0.9325 B(  3-N , 18-H ) :   0.8747 
B(  4-C ,  5-C ) :   1.2413 B(  4-C ,  8-C ) :   1.4340 B(  5-C ,  9-C ) :   1.4169 
B(  6-C ,  7-C ) :   1.2563 B(  6-C ,  8-C ) :   1.2169 B(  6-C , 11-C ) :   1.0287 
B(  7-C ,  9-C ) :   1.2019 B(  8-C ,  9-C ) :   0.1034 B(  8-C , 13-H ) :   1.0005 
B(  9-C , 14-H ) :   1.0083 B( 10-C , 15-H ) :   0.9526 B( 10-C , 16-H ) :   0.9534 
B( 11-C , 12-C ) :   1.0868 B( 12-C , 19-H ) :   0.9391 B( 12-C , 20-H ) :   0.9387 
B( 12-C , 21-H ) :   0.9474 

-------
TIMINGS
-------

Total SCF time: 0 days 0 hours 0 min 11 sec 

Total time                  ....      11.486 sec
Sum of individual times     ....      10.919 sec  ( 95.1%)

Fock matrix formation       ....       9.450 sec  ( 82.3%)
  Split-RI-J                ....       0.886 sec  (  9.4% of F)
  Chain of spheres X        ....       7.130 sec  ( 75.4% of F)
  XC integration            ....       1.137 sec  ( 12.0% of F)
    Basis function eval.    ....       0.319 sec  ( 28.0% of XC)
    Density eval.           ....       0.185 sec  ( 16.2% of XC)
    XC-Functional eval.     ....       0.040 sec  (  3.5% of XC)
    XC-Potential eval.      ....       0.167 sec  ( 14.7% of XC)
Diagonalization             ....       0.011 sec  (  0.1%)
Density matrix formation    ....       0.006 sec  (  0.1%)
Population analysis         ....       0.028 sec  (  0.2%)
Initial guess               ....       0.012 sec  (  0.1%)
Orbital Transformation      ....       0.000 sec  (  0.0%)
Orbital Orthonormalization  ....       0.006 sec  (  0.1%)
DIIS solution               ....       0.007 sec  (  0.1%)
SOSCF solution              ....       0.173 sec  (  1.5%)
Grid generation             ....       1.232 sec  ( 10.7%)

Maximum memory used throughout the entire SCF-calculation: 59.2 MB


-------------------------------------------------------------------------------
                          DFT DISPERSION CORRECTION                            
                                                                               
                              DFTD3 V3.1  Rev 1                                
                          USING Becke-Johnson damping                          
-------------------------------------------------------------------------------
Gaussians B3LYP functional is recognized, using regular B3LYP params
Active option DFTDOPT                   ...         4   

molecular C6(AA) [au] = 5318.266798 


            DFT-D V3
 parameters
 s6 scaling factor         :     1.0000 
 a1 scaling factor         :     0.3981 
 s8 scaling factor         :     1.9889 
 a2 scaling factor         :     4.4211 
 ad hoc parameters k1-k3   :    16.0000     1.3333    -4.0000 

 Edisp/kcal,au: -26.099247409316  -0.041591793756 
 E6   /kcal   : -12.203809589 
 E8   /kcal   : -13.895437821 
 % E8         :  53.240760558 

-------------------------   ----------------
Dispersion correction           -0.041591794
-------------------------   ----------------


-------------------------   --------------------
FINAL SINGLE POINT ENERGY      -628.373480713256
-------------------------   --------------------

                                *** OPTIMIZATION RUN DONE ***

                            ***************************************
                            *     ORCA property calculations      *
                            ***************************************

                                    ---------------------
                                    Active property flags
                                    ---------------------
   (+) Dipole Moment


------------------------------------------------------------------------------
                       ORCA ELECTRIC PROPERTIES CALCULATION
------------------------------------------------------------------------------

Dipole Moment Calculation                       ... on
Quadrupole Moment Calculation                   ... off
Polarizability Calculation                      ... off
GBWName                                         ... /Users/armando/tmp/pubchem_120000_d3bj.gbw
Electron density                                ... /Users/armando/tmp/pubchem_120000_d3bj.scfp
The origin for moment calculation is the CENTER OF MASS  = (-0.024232, -0.034126  0.168373)

-------------
DIPOLE MOMENT
-------------
                                X             Y             Z
Electronic contribution:      4.73064      -2.98186      -0.29514
Nuclear contribution   :     -3.77373       2.86209       0.22594
                        -----------------------------------------
Total Dipole Moment    :      0.95691      -0.11977      -0.06919
                        -----------------------------------------
Magnitude (a.u.)       :      0.96685
Magnitude (Debye)      :      2.45755



--------------------
Rotational spectrum 
--------------------
 
Rotational constants in cm-1:     0.056965     0.018209     0.013872 
Rotational constants in MHz :  1707.758818   545.885918   415.871882 

 Dipole components along the rotational axes: 
x,y,z [a.u.] :    -0.955778    -0.144905    -0.017276 
x,y,z [Debye]:    -2.429394    -0.368318    -0.043913 

 

Timings for individual modules:

Sum of individual times         ...      246.715 sec (=   4.112 min)
GTO integral calculation        ...        8.648 sec (=   0.144 min)   3.5 %
SCF iterations                  ...      186.851 sec (=   3.114 min)  75.7 %
SCF Gradient evaluation         ...       50.554 sec (=   0.843 min)  20.5 %
Geometry relaxation             ...        0.662 sec (=   0.011 min)   0.3 %
                             ****ORCA TERMINATED NORMALLY****
TOTAL RUN TIME: 0 days 0 hours 4 minutes 9 seconds 742 msec
