 Entering Gaussian System, Link 0=g09
 Initial command:
 /home/anv/software/gaussian09/g09/l1.exe /scratch/local/2fluorocyclohexanone/2fluorocyclohexanone_1/Gau-9685.inp -scrdir=/scratch/local/2fluorocyclohexanone/2fluorocyclohexanone_1/
 Entering Link 1 = /home/anv/software/gaussian09/g09/l1.exe PID=      9687.
  
 Copyright (c) 1988,1990,1992,1993,1995,1998,2003,2009,2011,
            Gaussian, Inc.  All Rights Reserved.
  
 This is part of the Gaussian(R) 09 program.  It is based on
 the Gaussian(R) 03 system (copyright 2003, Gaussian, Inc.),
 the Gaussian(R) 98 system (copyright 1998, Gaussian, Inc.),
 the Gaussian(R) 94 system (copyright 1995, Gaussian, Inc.),
 the Gaussian 92(TM) system (copyright 1992, Gaussian, Inc.),
 the Gaussian 90(TM) system (copyright 1990, Gaussian, Inc.),
 the Gaussian 88(TM) system (copyright 1988, Gaussian, Inc.),
 the Gaussian 86(TM) system (copyright 1986, Carnegie Mellon
 University), and the Gaussian 82(TM) system (copyright 1983,
 Carnegie Mellon University). Gaussian is a federally registered
 trademark of Gaussian, Inc.
  
 This software contains proprietary and confidential information,
 including trade secrets, belonging to Gaussian, Inc.
  
 This software is provided under written license and may be
 used, copied, transmitted, or stored only in accord with that
 written license.
  
 The following legend is applicable only to US Government
 contracts under FAR:
  
                    RESTRICTED RIGHTS LEGEND
  
 Use, reproduction and disclosure by the US Government is
 subject to restrictions as set forth in subparagraphs (a)
 and (c) of the Commercial Computer Software - Restricted
 Rights clause in FAR 52.227-19.
  
 Gaussian, Inc.
 340 Quinnipiac St., Bldg. 40, Wallingford CT 06492
  
  
 ---------------------------------------------------------------
 Warning -- This program may not be used in any manner that
 competes with the business of Gaussian, Inc. or will provide
 assistance to any competitor of Gaussian, Inc.  The licensee
 of this program is prohibited from giving any competitor of
 Gaussian, Inc. access to this program.  By using this program,
 the user acknowledges that Gaussian, Inc. is engaged in the
 business of creating and licensing software in the field of
 computational chemistry and represents and warrants to the
 licensee that it is not a competitor of Gaussian, Inc. and that
 it will not use this program in any manner prohibited above.
 ---------------------------------------------------------------
  

 Cite this work as:
 Gaussian 09, Revision C.01,
 M. J. Frisch, G. W. Trucks, H. B. Schlegel, G. E. Scuseria, 
 M. A. Robb, J. R. Cheeseman, G. Scalmani, V. Barone, B. Mennucci, 
 G. A. Petersson, H. Nakatsuji, M. Caricato, X. Li, H. P. Hratchian, 
 A. F. Izmaylov, J. Bloino, G. Zheng, J. L. Sonnenberg, M. Hada, 
 M. Ehara, K. Toyota, R. Fukuda, J. Hasegawa, M. Ishida, T. Nakajima, 
 Y. Honda, O. Kitao, H. Nakai, T. Vreven, J. A. Montgomery, Jr., 
 J. E. Peralta, F. Ogliaro, M. Bearpark, J. J. Heyd, E. Brothers, 
 K. N. Kudin, V. N. Staroverov, T. Keith, R. Kobayashi, J. Normand, 
 K. Raghavachari, A. Rendell, J. C. Burant, S. S. Iyengar, J. Tomasi, 
 M. Cossi, N. Rega, J. M. Millam, M. Klene, J. E. Knox, J. B. Cross, 
 V. Bakken, C. Adamo, J. Jaramillo, R. Gomperts, R. E. Stratmann, 
 O. Yazyev, A. J. Austin, R. Cammi, C. Pomelli, J. W. Ochterski, 
 R. L. Martin, K. Morokuma, V. G. Zakrzewski, G. A. Voth, 
 P. Salvador, J. J. Dannenberg, S. Dapprich, A. D. Daniels, 
 O. Farkas, J. B. Foresman, J. V. Ortiz, J. Cioslowski, 
 and D. J. Fox, Gaussian, Inc., Wallingford CT, 2010.
 
 ******************************************
 Gaussian 09:  EM64L-G09RevC.01 23-Sep-2011
                20-Nov-2023 
 ******************************************
 %chk=2fluorocyclohexanone_1
 %mem=8192mb
 %nproc=6
 Will use up to    6 processors via shared memory.
 ---------------------------------------------------
 #N PBE1PBE 6-31G** td=(nstates=25) gfinput pop=full
 ---------------------------------------------------
 1/38=1/1;
 2/12=2,17=6,18=5,40=1/2;
 3/5=1,6=6,7=101,11=2,16=1,24=10,25=1,30=1,74=-13/1,2,8,3;
 4//1;
 5/5=2,38=5/2;
 8/6=1,10=2,108=25/1;
 9/41=25,42=1/14;
 6/7=3/1;
 99/5=1,9=1/99;
 -----------------------------------------------
 2fluorocyclohexanone/2fluorocyclohexanone_1.dat
 -----------------------------------------------
 Charge =  0 Multiplicity = 1
 Symbolic Z-Matrix:
 6                     0.        0.        0. 
 6                     1.5232    0.        0. 
 6                     2.0913    1.4177    0. 
 6                     1.5677    2.2149    1.1908 
 6                     0.0469    2.2648    1.2149 
 6                    -0.5333    0.8617    1.1251 
 8                    -1.4463    0.4672    1.8588 
 9                    -0.3388    2.9075    2.3616 
 1                    -0.3717   -1.0226    0.1227 
 1                    -0.3908    0.3936   -0.9446 
 1                     1.8913   -0.5454   -0.8761 
 1                     1.8884   -0.5324    0.8873 
 1                     3.1855    1.3747    0.039 
 1                     1.8212    1.925    -0.934 
 1                     1.9329    1.768     2.1242 
 1                     1.967     3.2352    1.1647 
 1                    -0.34      2.846     0.3713 
 
                          Input orientation:                          
 ---------------------------------------------------------------------
 Center     Atomic      Atomic             Coordinates (Angstroms)
 Number     Number       Type             X           Y           Z
 ---------------------------------------------------------------------
      1          6           0        0.000000    0.000000    0.000000
      2          6           0        1.523200    0.000000    0.000000
      3          6           0        2.091300    1.417700    0.000000
      4          6           0        1.567700    2.214900    1.190800
      5          6           0        0.046900    2.264800    1.214900
      6          6           0       -0.533300    0.861700    1.125100
      7          8           0       -1.446300    0.467200    1.858800
      8          9           0       -0.338800    2.907500    2.361600
      9          1           0       -0.371700   -1.022600    0.122700
     10          1           0       -0.390800    0.393600   -0.944600
     11          1           0        1.891300   -0.545400   -0.876100
     12          1           0        1.888400   -0.532400    0.887300
     13          1           0        3.185500    1.374700    0.039000
     14          1           0        1.821200    1.925000   -0.934000
     15          1           0        1.932900    1.768000    2.124200
     16          1           0        1.967000    3.235200    1.164700
     17          1           0       -0.340000    2.846000    0.371300
 ---------------------------------------------------------------------
                    Distance matrix (angstroms):
                    1          2          3          4          5
     1  C    0.000000
     2  C    1.523200   0.000000
     3  C    2.526541   1.527289   0.000000
     4  C    2.963355   2.515108   1.525677   0.000000
     5  C    2.570506   2.963910   2.524506   1.521809   0.000000
     6  C    1.514195   2.497513   2.909211   2.499934   1.520982
     7  O    2.401082   3.534309   4.107700   3.547517   2.423968
     8  F    3.761050   4.183032   3.701627   2.342052   1.369945
     9  H    1.094955   2.156713   3.469364   3.922183   3.489287
    10  H    1.095406   2.170388   2.846378   3.422395   2.890746
    11  H    2.154537   1.095678   2.159007   3.463531   3.958701
    12  H    2.153324   1.097325   2.152059   2.782556   3.364933
    13  H    3.469687   2.157443   1.095739   2.156353   3.467828
    14  H    2.809760   2.160274   1.096660   2.159416   2.807379
    15  H    3.372559   2.793905   2.158709   1.097418   2.151891
    16  H    3.961330   3.466988   2.162240   1.095962   2.151971
    17  H    2.890187   3.421855   2.844139   2.170066   1.095055
                    6          7          8          9         10
     6  C    0.000000
     7  O    1.235927   0.000000
     8  F    2.398345   2.726615   0.000000
     9  H    2.140445   2.527511   4.523211   0.000000
    10  H    2.126754   2.996423   4.153716   1.773448   0.000000
    11  H    3.444331   4.432224   5.232453   2.519224   2.468683
    12  H    2.804406   3.614310   4.355100   2.435767   3.067260
    13  H    3.907973   5.058537   4.490505   4.290422   3.836658
    14  H    3.303660   4.538884   4.061020   3.822796   2.690398
    15  H    2.811000   3.630635   2.552536   4.135775   4.087308
    16  H    3.447691   4.449069   2.618524   4.968314   4.252418
    17  H    2.131438   3.015832   1.991250   3.876709   2.783602
                   11         12         13         14         15
    11  H    0.000000
    12  H    1.763450   0.000000
    13  H    2.489808   2.457460   0.000000
    14  H    2.472073   3.059488   1.763767   0.000000
    15  H    3.788845   2.612229   2.464092   3.064264   0.000000
    16  H    4.296921   3.778616   2.492670   2.478391   1.753419
    17  H    4.246917   4.079903   3.834618   2.687533   3.066075
                   16         17
    16  H    0.000000
    17  H    2.470467   0.000000
 Stoichiometry    C6H9FO
 Framework group  C1[X(C6H9FO)]
 Deg. of freedom    45
 Full point group                 C1      NOp   1
 Largest Abelian subgroup         C1      NOp   1
 Largest concise Abelian subgroup C1      NOp   1
                         Standard orientation:                         
 ---------------------------------------------------------------------
 Center     Atomic      Atomic             Coordinates (Angstroms)
 Number     Number       Type             X           Y           Z
 ---------------------------------------------------------------------
      1          6           0        0.854310    1.378046    0.331794
      2          6           0        1.878964    0.447866   -0.304592
      3          6           0        1.657689   -1.006638    0.105365
      4          6           0        0.245432   -1.463691   -0.247230
      5          6           0       -0.813434   -0.577077    0.392007
      6          6           0       -0.552163    0.885023    0.064307
      7          8           0       -1.442478    1.655895   -0.310674
      8          9           0       -2.040473   -0.991935   -0.054105
      9          1           0        0.965269    2.388075   -0.076198
     10          1           0        0.995587    1.431349    1.416743
     11          1           0        2.888973    0.762464   -0.019250
     12          1           0        1.814225    0.526045   -1.397212
     13          1           0        2.388454   -1.646289   -0.402053
     14          1           0        1.825349   -1.117244    1.183474
     15          1           0        0.116399   -1.458271   -1.337022
     16          1           0        0.095552   -2.501269    0.072304
     17          1           0       -0.810512   -0.685780    1.481650
 ---------------------------------------------------------------------
 Rotational constants (GHZ):      2.8562984      2.0431059      1.2906287
 Standard basis: 6-31G(d,p) (6D, 7F)
 AO basis set in the form of general basis input (Overlap normalization):
      1 0
 S   6 1.00       0.000000000000
      0.3047524880D+04  0.1834737132D-02
      0.4573695180D+03  0.1403732281D-01
      0.1039486850D+03  0.6884262226D-01
      0.2921015530D+02  0.2321844432D+00
      0.9286662960D+01  0.4679413484D+00
      0.3163926960D+01  0.3623119853D+00
 SP   3 1.00       0.000000000000
      0.7868272350D+01 -0.1193324198D+00  0.6899906659D-01
      0.1881288540D+01 -0.1608541517D+00  0.3164239610D+00
      0.5442492580D+00  0.1143456438D+01  0.7443082909D+00
 SP   1 1.00       0.000000000000
      0.1687144782D+00  0.1000000000D+01  0.1000000000D+01
 D   1 1.00       0.000000000000
      0.8000000000D+00  0.1000000000D+01
 ****
      2 0
 S   6 1.00       0.000000000000
      0.3047524880D+04  0.1834737132D-02
      0.4573695180D+03  0.1403732281D-01
      0.1039486850D+03  0.6884262226D-01
      0.2921015530D+02  0.2321844432D+00
      0.9286662960D+01  0.4679413484D+00
      0.3163926960D+01  0.3623119853D+00
 SP   3 1.00       0.000000000000
      0.7868272350D+01 -0.1193324198D+00  0.6899906659D-01
      0.1881288540D+01 -0.1608541517D+00  0.3164239610D+00
      0.5442492580D+00  0.1143456438D+01  0.7443082909D+00
 SP   1 1.00       0.000000000000
      0.1687144782D+00  0.1000000000D+01  0.1000000000D+01
 D   1 1.00       0.000000000000
      0.8000000000D+00  0.1000000000D+01
 ****
      3 0
 S   6 1.00       0.000000000000
      0.3047524880D+04  0.1834737132D-02
      0.4573695180D+03  0.1403732281D-01
      0.1039486850D+03  0.6884262226D-01
      0.2921015530D+02  0.2321844432D+00
      0.9286662960D+01  0.4679413484D+00
      0.3163926960D+01  0.3623119853D+00
 SP   3 1.00       0.000000000000
      0.7868272350D+01 -0.1193324198D+00  0.6899906659D-01
      0.1881288540D+01 -0.1608541517D+00  0.3164239610D+00
      0.5442492580D+00  0.1143456438D+01  0.7443082909D+00
 SP   1 1.00       0.000000000000
      0.1687144782D+00  0.1000000000D+01  0.1000000000D+01
 D   1 1.00       0.000000000000
      0.8000000000D+00  0.1000000000D+01
 ****
      4 0
 S   6 1.00       0.000000000000
      0.3047524880D+04  0.1834737132D-02
      0.4573695180D+03  0.1403732281D-01
      0.1039486850D+03  0.6884262226D-01
      0.2921015530D+02  0.2321844432D+00
      0.9286662960D+01  0.4679413484D+00
      0.3163926960D+01  0.3623119853D+00
 SP   3 1.00       0.000000000000
      0.7868272350D+01 -0.1193324198D+00  0.6899906659D-01
      0.1881288540D+01 -0.1608541517D+00  0.3164239610D+00
      0.5442492580D+00  0.1143456438D+01  0.7443082909D+00
 SP   1 1.00       0.000000000000
      0.1687144782D+00  0.1000000000D+01  0.1000000000D+01
 D   1 1.00       0.000000000000
      0.8000000000D+00  0.1000000000D+01
 ****
      5 0
 S   6 1.00       0.000000000000
      0.3047524880D+04  0.1834737132D-02
      0.4573695180D+03  0.1403732281D-01
      0.1039486850D+03  0.6884262226D-01
      0.2921015530D+02  0.2321844432D+00
      0.9286662960D+01  0.4679413484D+00
      0.3163926960D+01  0.3623119853D+00
 SP   3 1.00       0.000000000000
      0.7868272350D+01 -0.1193324198D+00  0.6899906659D-01
      0.1881288540D+01 -0.1608541517D+00  0.3164239610D+00
      0.5442492580D+00  0.1143456438D+01  0.7443082909D+00
 SP   1 1.00       0.000000000000
      0.1687144782D+00  0.1000000000D+01  0.1000000000D+01
 D   1 1.00       0.000000000000
      0.8000000000D+00  0.1000000000D+01
 ****
      6 0
 S   6 1.00       0.000000000000
      0.3047524880D+04  0.1834737132D-02
      0.4573695180D+03  0.1403732281D-01
      0.1039486850D+03  0.6884262226D-01
      0.2921015530D+02  0.2321844432D+00
      0.9286662960D+01  0.4679413484D+00
      0.3163926960D+01  0.3623119853D+00
 SP   3 1.00       0.000000000000
      0.7868272350D+01 -0.1193324198D+00  0.6899906659D-01
      0.1881288540D+01 -0.1608541517D+00  0.3164239610D+00
      0.5442492580D+00  0.1143456438D+01  0.7443082909D+00
 SP   1 1.00       0.000000000000
      0.1687144782D+00  0.1000000000D+01  0.1000000000D+01
 D   1 1.00       0.000000000000
      0.8000000000D+00  0.1000000000D+01
 ****
      7 0
 S   6 1.00       0.000000000000
      0.5484671660D+04  0.1831074430D-02
      0.8252349460D+03  0.1395017220D-01
      0.1880469580D+03  0.6844507810D-01
      0.5296450000D+02  0.2327143360D+00
      0.1689757040D+02  0.4701928980D+00
      0.5799635340D+01  0.3585208530D+00
 SP   3 1.00       0.000000000000
      0.1553961625D+02 -0.1107775495D+00  0.7087426823D-01
      0.3599933586D+01 -0.1480262627D+00  0.3397528391D+00
      0.1013761750D+01  0.1130767015D+01  0.7271585773D+00
 SP   1 1.00       0.000000000000
      0.2700058226D+00  0.1000000000D+01  0.1000000000D+01
 D   1 1.00       0.000000000000
      0.8000000000D+00  0.1000000000D+01
 ****
      8 0
 S   6 1.00       0.000000000000
      0.7001713090D+04  0.1819616901D-02
      0.1051366090D+04  0.1391607961D-01
      0.2392856900D+03  0.6840532453D-01
      0.6739744530D+02  0.2331857601D+00
      0.2151995730D+02  0.4712674392D+00
      0.7403101300D+01  0.3566185462D+00
 SP   3 1.00       0.000000000000
      0.2084795280D+02 -0.1085069751D+00  0.7162872424D-01
      0.4808308340D+01 -0.1464516581D+00  0.3459121027D+00
      0.1344069860D+01  0.1128688581D+01  0.7224699564D+00
 SP   1 1.00       0.000000000000
      0.3581513930D+00  0.1000000000D+01  0.1000000000D+01
 D   1 1.00       0.000000000000
      0.8000000000D+00  0.1000000000D+01
 ****
      9 0
 S   3 1.00       0.000000000000
      0.1873113696D+02  0.3349460434D-01
      0.2825394365D+01  0.2347269535D+00
      0.6401216923D+00  0.8137573261D+00
 S   1 1.00       0.000000000000
      0.1612777588D+00  0.1000000000D+01
 P   1 1.00       0.000000000000
      0.1100000000D+01  0.1000000000D+01
 ****
     10 0
 S   3 1.00       0.000000000000
      0.1873113696D+02  0.3349460434D-01
      0.2825394365D+01  0.2347269535D+00
      0.6401216923D+00  0.8137573261D+00
 S   1 1.00       0.000000000000
      0.1612777588D+00  0.1000000000D+01
 P   1 1.00       0.000000000000
      0.1100000000D+01  0.1000000000D+01
 ****
     11 0
 S   3 1.00       0.000000000000
      0.1873113696D+02  0.3349460434D-01
      0.2825394365D+01  0.2347269535D+00
      0.6401216923D+00  0.8137573261D+00
 S   1 1.00       0.000000000000
      0.1612777588D+00  0.1000000000D+01
 P   1 1.00       0.000000000000
      0.1100000000D+01  0.1000000000D+01
 ****
     12 0
 S   3 1.00       0.000000000000
      0.1873113696D+02  0.3349460434D-01
      0.2825394365D+01  0.2347269535D+00
      0.6401216923D+00  0.8137573261D+00
 S   1 1.00       0.000000000000
      0.1612777588D+00  0.1000000000D+01
 P   1 1.00       0.000000000000
      0.1100000000D+01  0.1000000000D+01
 ****
     13 0
 S   3 1.00       0.000000000000
      0.1873113696D+02  0.3349460434D-01
      0.2825394365D+01  0.2347269535D+00
      0.6401216923D+00  0.8137573261D+00
 S   1 1.00       0.000000000000
      0.1612777588D+00  0.1000000000D+01
 P   1 1.00       0.000000000000
      0.1100000000D+01  0.1000000000D+01
 ****
     14 0
 S   3 1.00       0.000000000000
      0.1873113696D+02  0.3349460434D-01
      0.2825394365D+01  0.2347269535D+00
      0.6401216923D+00  0.8137573261D+00
 S   1 1.00       0.000000000000
      0.1612777588D+00  0.1000000000D+01
 P   1 1.00       0.000000000000
      0.1100000000D+01  0.1000000000D+01
 ****
     15 0
 S   3 1.00       0.000000000000
      0.1873113696D+02  0.3349460434D-01
      0.2825394365D+01  0.2347269535D+00
      0.6401216923D+00  0.8137573261D+00
 S   1 1.00       0.000000000000
      0.1612777588D+00  0.1000000000D+01
 P   1 1.00       0.000000000000
      0.1100000000D+01  0.1000000000D+01
 ****
     16 0
 S   3 1.00       0.000000000000
      0.1873113696D+02  0.3349460434D-01
      0.2825394365D+01  0.2347269535D+00
      0.6401216923D+00  0.8137573261D+00
 S   1 1.00       0.000000000000
      0.1612777588D+00  0.1000000000D+01
 P   1 1.00       0.000000000000
      0.1100000000D+01  0.1000000000D+01
 ****
     17 0
 S   3 1.00       0.000000000000
      0.1873113696D+02  0.3349460434D-01
      0.2825394365D+01  0.2347269535D+00
      0.6401216923D+00  0.8137573261D+00
 S   1 1.00       0.000000000000
      0.1612777588D+00  0.1000000000D+01
 P   1 1.00       0.000000000000
      0.1100000000D+01  0.1000000000D+01
 ****

 There are   165 symmetry adapted basis functions of A   symmetry.
 Integral buffers will be    131072 words long.
 Raffenetti 2 integral format.
 Two-electron integral symmetry is turned on.
   165 basis functions,   287 primitive gaussians,   165 cartesian basis functions
    31 alpha electrons       31 beta electrons
       nuclear repulsion energy       391.7979651339 Hartrees.
 NAtoms=   17 NActive=   17 NUniq=   17 SFac= 1.00D+00 NAtFMM=   60 NAOKFM=F Big=F
 One-electron integrals computed using PRISM.
 NBasis=   165 RedAO= T  NBF=   165
 NBsUse=   165 1.00D-06 NBFU=   165
 Harris functional with IExCor= 1009 diagonalized for initial guess.
 ExpMin= 1.61D-01 ExpMax= 7.00D+03 ExpMxC= 1.05D+03 IAcc=1 IRadAn=         1 AccDes= 0.00D+00
 HarFok:  IExCor= 1009 AccDes= 0.00D+00 IRadAn=         1 IDoV= 1
 ScaDFX=  1.000000  1.000000  1.000000  1.000000
 FoFCou: FMM=F IPFlag=           0 FMFlag=      100000 FMFlg1=           0
         NFxFlg=           0 DoJE=T BraDBF=F KetDBF=T FulRan=T
         Omega=  0.000000  0.000000  1.000000  0.000000  0.000000 ICntrl=     500 IOpCl=  0
         NMat0=    1 NMatS0=    1 NMatT0=    0 NMatD0=    1 NMtDS0=    0 NMtDT0=    0
         I1Cent=           4 NGrid=           0.
 Petite list used in FoFCou.
 Initial guess orbital symmetries:
       Occupied  (A) (A) (A) (A) (A) (A) (A) (A) (A) (A) (A) (A)
                 (A) (A) (A) (A) (A) (A) (A) (A) (A) (A) (A) (A)
                 (A) (A) (A) (A) (A) (A) (A)
       Virtual   (A) (A) (A) (A) (A) (A) (A) (A) (A) (A) (A) (A)
                 (A) (A) (A) (A) (A) (A) (A) (A) (A) (A) (A) (A)
                 (A) (A) (A) (A) (A) (A) (A) (A) (A) (A) (A) (A)
                 (A) (A) (A) (A) (A) (A) (A) (A) (A) (A) (A) (A)
                 (A) (A) (A) (A) (A) (A) (A) (A) (A) (A) (A) (A)
                 (A) (A) (A) (A) (A) (A) (A) (A) (A) (A) (A) (A)
                 (A) (A) (A) (A) (A) (A) (A) (A) (A) (A) (A) (A)
                 (A) (A) (A) (A) (A) (A) (A) (A) (A) (A) (A) (A)
                 (A) (A) (A) (A) (A) (A) (A) (A) (A) (A) (A) (A)
                 (A) (A) (A) (A) (A) (A) (A) (A) (A) (A) (A) (A)
                 (A) (A) (A) (A) (A) (A) (A) (A) (A) (A) (A) (A)
                 (A) (A)
 The electronic state of the initial guess is 1-A.
 Requested convergence on RMS density matrix=1.00D-08 within 128 cycles.
 Requested convergence on MAX density matrix=1.00D-06.
 Requested convergence on             energy=1.00D-06.
 No special actions if energy rises.
 Keep R1 ints in memory in canonical form, NReq=96313583.
 Integral accuracy reduced to 1.0D-05 until final iterations.
 Initial convergence to 1.0D-05 achieved.  Increase integral accuracy.
 SCF Done:  E(RPBE1PBE) =  -408.676437551     A.U. after   14 cycles
             Convg  =    0.3198D-08             -V/T =  2.0080
 ExpMin= 1.61D-01 ExpMax= 7.00D+03 ExpMxC= 1.05D+03 IAcc=3 IRadAn=         5 AccDes= 0.00D+00
 HarFok:  IExCor=  205 AccDes= 0.00D+00 IRadAn=         5 IDoV=-2
 ScaDFX=  1.000000  1.000000  1.000000  1.000000
 Range of M.O.s used for correlation:     9   165
 NBasis=   165 NAE=    31 NBE=    31 NFC=     8 NFV=     0
 NROrb=    157 NOA=    23 NOB=    23 NVA=   134 NVB=   134

 **** Warning!!: The largest alpha MO coefficient is  0.10244185D+02

 Orbital symmetries:
       Occupied  (A) (A) (A) (A) (A) (A) (A) (A) (A) (A) (A) (A)
                 (A) (A) (A) (A) (A) (A) (A) (A) (A) (A) (A) (A)
                 (A) (A) (A) (A) (A) (A) (A)
       Virtual   (A) (A) (A) (A) (A) (A) (A) (A) (A) (A) (A) (A)
                 (A) (A) (A) (A) (A) (A) (A) (A) (A) (A) (A) (A)
                 (A) (A) (A) (A) (A) (A) (A) (A) (A) (A) (A) (A)
                 (A) (A) (A) (A) (A) (A) (A) (A) (A) (A) (A) (A)
                 (A) (A) (A) (A) (A) (A) (A) (A) (A) (A) (A) (A)
                 (A) (A) (A) (A) (A) (A) (A) (A) (A) (A) (A) (A)
                 (A) (A) (A) (A) (A) (A) (A) (A) (A) (A) (A) (A)
                 (A) (A) (A) (A) (A) (A) (A) (A) (A) (A) (A) (A)
                 (A) (A) (A) (A) (A) (A) (A) (A) (A) (A) (A) (A)
                 (A) (A) (A) (A) (A) (A) (A) (A) (A) (A) (A) (A)
                 (A) (A) (A) (A) (A) (A) (A) (A) (A) (A) (A) (A)
                 (A) (A)
   100 initial guesses have been made.
 Convergence on wavefunction:    0.001000000000000
 Iteration     1 Dimension   100 NMult   100
 CISAX will form   100 AO SS matrices at one time.
 New state      7 was old state      9
 New state      9 was old state     10
 New state     10 was old state     13
 New state     13 was old state     15
 New state     15 was old state     22
 New state     16 was old state     17
 New state     17 was old state     16
 New state     18 was old state     19
 New state     19 was old state     18
 New state     20 was old state     21
 New state     21 was old state     24
 New state     22 was old state     20
 New state     24 was old state     25
 No map to state     25
 Iteration     2 Dimension   150 NMult   150
 New state     12 was old state     13
 New state     13 was old state     12
 New state     21 was old state     22
 New state     22 was old state     21
 Iteration     3 Dimension   200 NMult   200
 Iteration     4 Dimension   248 NMult   248
 Iteration     5 Dimension   254 NMult   254
 ***********************************************************************
 Excited states from <AA,BB:AA,BB> singles matrix:
 ***********************************************************************
 
 Ground to excited state transition densities written to RWF  633
 Ground to excited state transition electric dipole moments (Au):
       state          X           Y           Z        Dip. S.      Osc.
         1         0.0015      0.0186     -0.0036      0.0004      0.0000
         2        -0.2192      0.3344      0.0240      0.1604      0.0277
         3         0.1750     -0.3050      0.1594      0.1491      0.0273
         4        -0.2197      0.0113     -0.1079      0.0600      0.0116
         5         0.0524      0.0256      0.0371      0.0048      0.0009
         6         0.1674      0.1780     -0.0896      0.0678      0.0133
         7         0.3689     -0.0979      0.0762      0.1515      0.0314
         8        -0.1428      0.0874     -0.0160      0.0283      0.0059
         9        -0.3356      0.1882     -0.1224      0.1630      0.0347
        10         0.0328     -0.1794      0.1276      0.0495      0.0110
        11         0.2060     -0.1289      0.0332      0.0601      0.0137
        12         0.3428     -0.2966      0.1646      0.2326      0.0539
        13        -0.0902     -0.2143     -0.0827      0.0609      0.0142
        14         0.1080     -0.0895     -0.0313      0.0206      0.0050
        15         0.2028      0.2295     -0.1222      0.1088      0.0266
        16         0.0485     -0.0607     -0.0785      0.0122      0.0030
        17        -0.1875     -0.1490     -0.1797      0.0896      0.0225
        18         0.2296     -0.1186     -0.0668      0.0712      0.0181
        19         0.0728      0.1708     -0.0743      0.0400      0.0102
        20         0.0734      0.0872     -0.1791      0.0451      0.0116
        21        -0.1666      0.1280      0.0738      0.0496      0.0129
        22         0.0559      0.0381      0.1299      0.0215      0.0056
        23         0.0915      0.2241      0.0053      0.0586      0.0153
        24         0.0778     -0.1099      0.0612      0.0219      0.0058
        25        -0.1352      0.2894      0.0776      0.1080      0.0286
 Ground to excited state transition velocity dipole moments (Au):
       state          X           Y           Z        Dip. S.      Osc.
         1        -0.0010     -0.0005     -0.0002      0.0000      0.0000
         2         0.0563     -0.0837     -0.0090      0.0102      0.0264
         3        -0.0490      0.0764     -0.0337      0.0094      0.0227
         4         0.0617     -0.0072      0.0284      0.0047      0.0107
         5        -0.0085     -0.0082     -0.0070      0.0002      0.0004
         6        -0.0483     -0.0501      0.0165      0.0051      0.0115
         7        -0.1083      0.0293     -0.0229      0.0131      0.0282
         8         0.0423     -0.0226      0.0062      0.0023      0.0049
         9         0.0994     -0.0606      0.0318      0.0146      0.0304
        10        -0.0051      0.0552     -0.0504      0.0056      0.0112
        11        -0.0671      0.0445     -0.0107      0.0066      0.0129
        12        -0.1113      0.0958     -0.0545      0.0246      0.0471
        13         0.0289      0.0761      0.0373      0.0080      0.0153
        14        -0.0505      0.0419      0.0218      0.0048      0.0088
        15        -0.0653     -0.0860      0.0446      0.0137      0.0249
        16        -0.0215      0.0270      0.0297      0.0021      0.0038
        17         0.0873      0.0638      0.0585      0.0151      0.0268
        18        -0.0846      0.0416      0.0179      0.0092      0.0161
        19        -0.0263     -0.0655      0.0232      0.0055      0.0096
        20        -0.0245     -0.0332      0.0627      0.0056      0.0097
        21         0.0628     -0.0502     -0.0329      0.0075      0.0129
        22        -0.0180     -0.0089     -0.0498      0.0029      0.0049
        23        -0.0314     -0.0834      0.0051      0.0080      0.0136
        24        -0.0385      0.0313     -0.0231      0.0030      0.0050
        25         0.0442     -0.1068     -0.0156      0.0136      0.0229
 Ground to excited state transition magnetic dipole moments (Au):
       state          X           Y           Z
         1        -0.7745      0.6742     -0.3965
         2         0.3405      0.2648      0.1658
         3        -0.1848      0.1405      0.0216
         4        -0.0456      0.1861     -0.2521
         5        -0.0736     -0.1153      0.0854
         6        -0.2102     -0.2236      0.4348
         7        -0.1307     -0.2980      0.2720
         8        -0.3438      0.1092     -0.5903
         9        -0.4141     -0.2582     -0.1134
        10        -0.4090     -0.8674     -0.1264
        11         0.1499      0.1840      0.1075
        12        -0.3133      0.2471     -0.4508
        13         0.2963      0.0486     -0.3767
        14        -0.2763      0.0195     -0.2997
        15        -0.0619      0.3401      0.3354
        16         0.6375      0.2396     -0.3487
        17        -0.1086     -0.1080     -0.2230
        18        -0.3692     -0.2672     -0.0216
        19         0.3559     -0.0307      0.0783
        20        -0.2804     -0.5431      0.3167
        21         0.1834     -0.0341     -0.3607
        22        -0.0177     -0.1646      0.4079
        23         0.5370     -0.0870      0.7716
        24        -0.5625      0.1431      0.2035
        25        -0.1787      0.4410      0.3595
 Ground to excited state transition velocity quadrupole moments (Au):
       state          XX          YY          ZZ          XY          XZ          YZ
         1         0.0639     -0.0700      0.0074      0.0026     -0.0524     -0.0607
         2         0.0853      0.0545     -0.0554      0.0617     -0.0907      0.0356
         3         0.0085      0.2031     -0.2296     -0.1924      0.0756      0.0102
         4        -0.0836     -0.1136      0.2168      0.1090      0.0692      0.1159
         5         0.1841     -0.2141     -0.0686      0.0261     -0.0203     -0.0200
         6        -0.3380      0.0004      0.1988      0.0223     -0.0550     -0.1293
         7        -0.2006      0.1489     -0.0275     -0.2290      0.1116     -0.0698
         8        -0.3558      0.3068      0.0271      0.1869      0.0977      0.1798
         9        -0.2472     -0.0885      0.1981      0.4663     -0.0058      0.0799
        10         0.1902     -0.2574      0.0691     -0.0239      0.1894     -0.1148
        11         0.0958      0.1454      0.0066     -0.3563      0.1247      0.0629
        12         0.0702      0.3889     -0.1805     -0.5714      0.0377     -0.2023
        13        -0.2483     -0.2899      0.3329      0.1209     -0.0392      0.0968
        14        -0.4835      0.1443      0.0871      0.5829      0.1548     -0.0499
        15        -0.4454     -0.1247      0.2244     -0.2310     -0.1178     -0.0200
        16         0.0180     -0.2077      0.0525      0.1117     -0.0909      0.1630
        17         0.3557     -0.0756     -0.0870      0.3210      0.0418      0.0399
        18        -0.4541      0.8546     -0.4424      0.1859     -0.0019     -0.2664
        19        -0.0941      0.1177      0.0844     -0.0586     -0.0206      0.0703
        20        -0.3777     -0.2582      0.4269      0.1691      0.0603     -0.2088
        21        -0.0626      0.1869     -0.2658     -0.0108      0.0727      0.1396
        22        -0.4426     -0.3244      0.4759     -0.0496      0.0606     -0.1550
        23         0.1534     -0.0311     -0.3283     -0.2561     -0.0485      0.1125
        24        -0.4791      0.6527     -0.1461     -0.2309      0.0319     -0.1377
        25        -0.4684      0.3923     -0.0476     -0.0762      0.0416      0.1531
 <0|del|b> * <b|rxdel|0> + <0|del|b> * <b|delr+rdel|0>
 Rotatory Strengths (R) in cgs (10**-40 erg-esu-cm/Gauss)
       state          XX          YY          ZZ    R(velocity)
         1        -0.5530      2.2123      1.0161      0.8918
         2       -43.3818     27.5746      3.5280     -4.0931
         3        13.7972      1.7223     33.5418     16.3538
         4        -5.9901     -7.2235    -14.4064     -9.2067
         5        -0.0000      0.4581      1.8814      0.7798
         6        19.1486     27.7738     21.3929     22.7717
         7       -14.8113     11.6666      1.2851     -0.6199
         8        -3.1102    -13.2226    -30.1112    -15.4813
         9        29.3831    -57.1993    -36.6365    -21.4842
        10       -53.8043      8.2983    -38.0858    -27.8639
        11         5.4915    -19.9598      8.1745     -2.0980
        12        77.0938     51.6803     40.3162     56.3634
        13        -2.8925     -7.2876      6.5640     -1.2054
        14         0.4869     -2.6629     18.2572      5.3604
        15       -33.5367     29.5501    -15.8236     -6.6034
        16         1.8090    -29.6127     -5.9368    -11.2468
        17        -3.5845    -35.5538    -16.1484    -18.4289
        18        -7.5154     46.4879     -2.3070     12.2218
        19         1.0304     -7.3948     -3.8276     -3.3973
        20        46.1051     19.4101     16.2541     27.2564
        21        15.9984     28.9217      0.7423     15.2208
        22       -14.3632    -17.8542     -1.3945    -11.2040
        23         5.2934    -13.7148     -1.8436     -3.4217
        24         3.6693     15.0774     19.4666     12.7378
        25       -41.9403     -7.0564    -58.9855    -35.9941
 1/2[<0|r|b>*<b|rxdel|0> + (<0|rxdel|b>*<b|r|0>)*]
 Rotatory Strengths (R) in cgs (10**-40 erg-esu-cm/Gauss)
       state          XX          YY          ZZ     R(length)
         1         0.8480     -8.8750     -1.0162     -3.0144
         2        52.7753    -62.6126     -2.8145     -4.2173
         3        22.8617     30.2920     -2.4330     16.9069
         4        -7.0852     -1.4876    -19.2417     -9.2715
         5         2.7278      2.0893     -2.2427      0.8581
         6        24.8956     28.1522     27.5633     26.8704
         7        34.0998    -20.6260    -14.6688     -0.3983
         8       -34.7133     -6.7475     -6.6880    -16.0496
         9       -98.2766     34.3661     -9.8099    -24.5735
        10         9.4864   -110.0281     11.4032    -29.7128
        11       -21.8367     16.7671     -2.5239     -2.5312
        12        75.9641     51.8391     52.4862     60.0965
        13        18.9060      7.3711    -22.0252      1.4173
        14        21.0965      1.2337     -6.6426      5.2292
        15         8.8825    -55.2094     28.9783     -5.7828
        16       -21.8614     10.2867    -19.3509    -10.3085
        17       -14.4039    -11.3774    -28.3353    -18.0389
        18        59.9399    -22.4102     -1.0215     12.1694
        19       -18.3191      3.7067      4.1166     -3.4986
        20        14.5546     33.4886     40.1046     29.3826
        21        21.6057      3.0864     18.8311     14.5077
        22         0.7001      4.4366    -37.4758    -10.7797
        23       -34.7392     13.7847     -2.8871     -7.9472
        24        30.9327     11.1276     -8.8047     11.0852
        25       -17.0783    -90.2349    -19.7343    -42.3492
  1/2[<0|del|b>*<b|r|0> + (<0|r|b>*<b|del|0>)*] (Au)
       state          X           Y           Z        Dip. S.   Osc.(frdel)
         1        -0.0000     -0.0000      0.0000      0.0000      0.0000
         2        -0.0123     -0.0280     -0.0002      0.0405      0.0270
         3        -0.0086     -0.0233     -0.0054      0.0372      0.0248
         4        -0.0136     -0.0001     -0.0031      0.0167      0.0111
         5        -0.0004     -0.0002     -0.0003      0.0009      0.0006
         6        -0.0081     -0.0089     -0.0015      0.0185      0.0123
         7        -0.0400     -0.0029     -0.0017      0.0446      0.0297
         8        -0.0060     -0.0020     -0.0001      0.0081      0.0054
         9        -0.0333     -0.0114     -0.0039      0.0487      0.0324
        10        -0.0002     -0.0099     -0.0064      0.0165      0.0110
        11        -0.0138     -0.0057     -0.0004      0.0199      0.0133
        12        -0.0382     -0.0284     -0.0090      0.0756      0.0504
        13        -0.0026     -0.0163     -0.0031      0.0220      0.0147
        14        -0.0055     -0.0037     -0.0007      0.0099      0.0066
        15        -0.0132     -0.0197     -0.0054      0.0384      0.0256
        16        -0.0010     -0.0016     -0.0023      0.0050      0.0033
        17        -0.0164     -0.0095     -0.0105      0.0364      0.0243
        18        -0.0194     -0.0049     -0.0012      0.0255      0.0170
        19        -0.0019     -0.0112     -0.0017      0.0148      0.0099
        20        -0.0018     -0.0029     -0.0112      0.0159      0.0106
        21        -0.0105     -0.0064     -0.0024      0.0193      0.0129
        22        -0.0010     -0.0003     -0.0065      0.0078      0.0052
        23        -0.0029     -0.0187      0.0000      0.0215      0.0143
        24        -0.0030     -0.0034     -0.0014      0.0078      0.0052
        25        -0.0060     -0.0309     -0.0012      0.0381      0.0254

 Excitation energies and oscillator strengths:
 
 Excited State   1:      Singlet-A      4.0343 eV  307.32 nm  f=0.0000  <S**2>=0.000
      31 -> 32         0.70112
 This state for optimization and/or second-order correction.
 Total Energy, E(TD-HF/TD-KS) =  -408.528179028    
 Copying the excited state density for this state as the 1-particle RhoCI density.
 
 Excited State   2:      Singlet-A      7.0538 eV  175.77 nm  f=0.0277  <S**2>=0.000
      26 -> 32        -0.11360
      29 -> 32         0.33418
      30 -> 32         0.59923
 
 Excited State   3:      Singlet-A      7.4721 eV  165.93 nm  f=0.0273  <S**2>=0.000
      28 -> 32         0.26492
      29 -> 32         0.54850
      30 -> 32        -0.31436
 
 Excited State   4:      Singlet-A      7.8931 eV  157.08 nm  f=0.0116  <S**2>=0.000
      26 -> 32        -0.14103
      27 -> 32        -0.16358
      28 -> 32         0.59803
      29 -> 32        -0.24329
      31 -> 33         0.15228
 
 Excited State   5:      Singlet-A      7.9991 eV  155.00 nm  f=0.0009  <S**2>=0.000
      26 -> 32         0.13811
      27 -> 32         0.13347
      31 -> 33         0.64574
      31 -> 34         0.11465
 
 Excited State   6:      Singlet-A      8.0375 eV  154.26 nm  f=0.0133  <S**2>=0.000
      27 -> 32         0.65947
      28 -> 32         0.18158
 
 Excited State   7:      Singlet-A      8.4507 eV  146.71 nm  f=0.0314  <S**2>=0.000
      23 -> 32         0.14449
      25 -> 32         0.55706
      26 -> 32        -0.32591
      28 -> 32        -0.14324
      31 -> 34         0.11221
 
 Excited State   8:      Singlet-A      8.5700 eV  144.67 nm  f=0.0059  <S**2>=0.000
      24 -> 32         0.12148
      26 -> 32         0.23206
      31 -> 33        -0.16423
      31 -> 34         0.61231
      31 -> 36         0.11700
 
 Excited State   9:      Singlet-A      8.6897 eV  142.68 nm  f=0.0347  <S**2>=0.000
      23 -> 32         0.19802
      24 -> 32         0.32604
      25 -> 32         0.29717
      26 -> 32         0.39951
      30 -> 32         0.10316
      31 -> 34        -0.26538
 
 Excited State  10:      Singlet-A      9.0790 eV  136.56 nm  f=0.0110  <S**2>=0.000
      20 -> 32         0.10166
      23 -> 32         0.60076
      25 -> 32        -0.26450
      26 -> 32        -0.13926
 
 Excited State  11:      Singlet-A      9.2783 eV  133.63 nm  f=0.0137  <S**2>=0.000
      23 -> 32        -0.15610
      24 -> 32         0.46021
      26 -> 32        -0.13976
      31 -> 35         0.35223
      31 -> 36        -0.28644
 
 Excited State  12:      Singlet-A      9.4638 eV  131.01 nm  f=0.0539  <S**2>=0.000
      24 -> 32         0.36456
      26 -> 32        -0.21527
      31 -> 35        -0.27078
      31 -> 36         0.43229
 
 Excited State  13:      Singlet-A      9.5013 eV  130.49 nm  f=0.0142  <S**2>=0.000
      31 -> 35         0.53004
      31 -> 36         0.43850
 
 Excited State  14:      Singlet-A      9.8731 eV  125.58 nm  f=0.0050  <S**2>=0.000
      30 -> 33         0.65364
      31 -> 37         0.12862
 
 Excited State  15:      Singlet-A      9.9665 eV  124.40 nm  f=0.0266  <S**2>=0.000
      30 -> 33        -0.14302
      31 -> 37         0.66376
      31 -> 38         0.10485
 
 Excited State  16:      Singlet-A     10.0441 eV  123.44 nm  f=0.0030  <S**2>=0.000
      22 -> 32         0.66878
      23 -> 32         0.10501
 
 Excited State  17:      Singlet-A     10.2425 eV  121.05 nm  f=0.0225  <S**2>=0.000
      29 -> 33         0.33017
      31 -> 37        -0.16262
      31 -> 38         0.47971
      31 -> 39         0.30852
      31 -> 41         0.11027
 
 Excited State  18:      Singlet-A     10.3595 eV  119.68 nm  f=0.0181  <S**2>=0.000
      29 -> 33         0.57509
      30 -> 34        -0.12012
      31 -> 38        -0.31768
      31 -> 39        -0.10828
 
 Excited State  19:      Singlet-A     10.4563 eV  118.57 nm  f=0.0102  <S**2>=0.000
      21 -> 32        -0.23163
      31 -> 38        -0.32301
      31 -> 39         0.55842
 
 Excited State  20:      Singlet-A     10.5392 eV  117.64 nm  f=0.0116  <S**2>=0.000
      19 -> 32         0.11148
      21 -> 32         0.44990
      27 -> 33        -0.10579
      28 -> 33         0.17935
      29 -> 33        -0.15210
      30 -> 34        -0.34616
      31 -> 38        -0.10116
      31 -> 39         0.21253
 
 Excited State  21:      Singlet-A     10.5847 eV  117.14 nm  f=0.0129  <S**2>=0.000
      21 -> 32         0.26379
      22 -> 32        -0.10783
      27 -> 33        -0.10590
      30 -> 34         0.49111
      31 -> 40        -0.30033
      31 -> 41        -0.10471
 
 Excited State  22:      Singlet-A     10.6172 eV  116.78 nm  f=0.0056  <S**2>=0.000
      28 -> 33         0.55191
      30 -> 34         0.22813
      31 -> 40         0.33894
 
 Excited State  23:      Singlet-A     10.6229 eV  116.71 nm  f=0.0153  <S**2>=0.000
      21 -> 32         0.29449
      27 -> 33         0.19756
      28 -> 33        -0.32765
      31 -> 40         0.44137
 
 Excited State  24:      Singlet-A     10.7789 eV  115.03 nm  f=0.0058  <S**2>=0.000
      27 -> 33         0.41825
      28 -> 33         0.15756
      29 -> 34        -0.14565
      31 -> 40        -0.18675
      31 -> 41        -0.40969
      31 -> 42         0.10169
 
 Excited State  25:      Singlet-A     10.8032 eV  114.77 nm  f=0.0286  <S**2>=0.000
      27 -> 33         0.40512
      31 -> 38        -0.12149
      31 -> 41         0.46041
      31 -> 42        -0.23297
 SavETr:  write IOETrn=   770 NScale= 10 NData=  16 NLR=1 LETran=     460.

 **********************************************************************

            Population analysis using the SCF density.

 **********************************************************************

 Orbital symmetries:
       Occupied  (A) (A) (A) (A) (A) (A) (A) (A) (A) (A) (A) (A)
                 (A) (A) (A) (A) (A) (A) (A) (A) (A) (A) (A) (A)
                 (A) (A) (A) (A) (A) (A) (A)
       Virtual   (A) (A) (A) (A) (A) (A) (A) (A) (A) (A) (A) (A)
                 (A) (A) (A) (A) (A) (A) (A) (A) (A) (A) (A) (A)
                 (A) (A) (A) (A) (A) (A) (A) (A) (A) (A) (A) (A)
                 (A) (A) (A) (A) (A) (A) (A) (A) (A) (A) (A) (A)
                 (A) (A) (A) (A) (A) (A) (A) (A) (A) (A) (A) (A)
                 (A) (A) (A) (A) (A) (A) (A) (A) (A) (A) (A) (A)
                 (A) (A) (A) (A) (A) (A) (A) (A) (A) (A) (A) (A)
                 (A) (A) (A) (A) (A) (A) (A) (A) (A) (A) (A) (A)
                 (A) (A) (A) (A) (A) (A) (A) (A) (A) (A) (A) (A)
                 (A) (A) (A) (A) (A) (A) (A) (A) (A) (A) (A) (A)
                 (A) (A) (A) (A) (A) (A) (A) (A) (A) (A) (A) (A)
                 (A) (A)
 The electronic state is 1-A.
 Alpha  occ. eigenvalues --  -24.76481 -19.21886 -10.32629 -10.31981 -10.24852
 Alpha  occ. eigenvalues --  -10.24811 -10.24785 -10.24730  -1.22401  -1.05740
 Alpha  occ. eigenvalues --   -0.87130  -0.78694  -0.75762  -0.65655  -0.62355
 Alpha  occ. eigenvalues --   -0.57388  -0.52320  -0.50539  -0.49204  -0.47416
 Alpha  occ. eigenvalues --   -0.45915  -0.44531  -0.42204  -0.40235  -0.39421
 Alpha  occ. eigenvalues --   -0.37132  -0.36543  -0.35695  -0.34469  -0.33001
 Alpha  occ. eigenvalues --   -0.25543
 Alpha virt. eigenvalues --   -0.02156   0.08430   0.10711   0.13334   0.13812
 Alpha virt. eigenvalues --    0.15336   0.16624   0.16929   0.17451   0.18317
 Alpha virt. eigenvalues --    0.19357   0.21509   0.23639   0.24763   0.27678
 Alpha virt. eigenvalues --    0.28763   0.33785   0.37043   0.51990   0.52519
 Alpha virt. eigenvalues --    0.54304   0.55774   0.56068   0.57778   0.60783
 Alpha virt. eigenvalues --    0.62862   0.64274   0.67445   0.68339   0.70211
 Alpha virt. eigenvalues --    0.73319   0.75852   0.76902   0.79389   0.80758
 Alpha virt. eigenvalues --    0.83645   0.85774   0.86728   0.87998   0.90263
 Alpha virt. eigenvalues --    0.92120   0.92737   0.93284   0.94565   0.95540
 Alpha virt. eigenvalues --    1.01728   1.08334   1.09117   1.11945   1.15856
 Alpha virt. eigenvalues --    1.19728   1.24671   1.33774   1.34467   1.38652
 Alpha virt. eigenvalues --    1.40640   1.44020   1.46036   1.48924   1.58758
 Alpha virt. eigenvalues --    1.59478   1.61132   1.63543   1.67773   1.70321
 Alpha virt. eigenvalues --    1.72638   1.77734   1.80736   1.82794   1.84846
 Alpha virt. eigenvalues --    1.87094   1.87820   1.90138   1.91775   1.94466
 Alpha virt. eigenvalues --    1.96431   1.96747   1.98170   1.99976   2.02580
 Alpha virt. eigenvalues --    2.08975   2.10422   2.13860   2.14648   2.17051
 Alpha virt. eigenvalues --    2.19390   2.23398   2.25161   2.28068   2.29473
 Alpha virt. eigenvalues --    2.32316   2.32598   2.35047   2.39770   2.42095
 Alpha virt. eigenvalues --    2.44883   2.47418   2.50194   2.51828   2.56563
 Alpha virt. eigenvalues --    2.59640   2.62561   2.66724   2.67138   2.73920
 Alpha virt. eigenvalues --    2.74805   2.77962   2.81296   2.85011   2.86409
 Alpha virt. eigenvalues --    2.88931   2.92334   2.93693   2.95123   3.01604
 Alpha virt. eigenvalues --    3.06171   3.13223   3.23345   3.30192   3.31374
 Alpha virt. eigenvalues --    3.34613   3.39978   3.47816   3.48618   3.52008
 Alpha virt. eigenvalues --    3.57822   4.00156   4.23501   4.39789   4.46317
 Alpha virt. eigenvalues --    4.65295   4.74250   4.77948   4.88296
     Molecular Orbital Coefficients:
                           1         2         3         4         5
                           O         O         O         O         O
     Eigenvalues --   -24.76481 -19.21886 -10.32629 -10.31981 -10.24852
   1 1   C  1S          0.00002   0.00001   0.00156  -0.00026   0.17813
   2        2S          0.00007   0.00009  -0.00004  -0.00064   0.00820
   3        2PX        -0.00001   0.00004   0.00010   0.00010  -0.00004
   4        2PY         0.00001  -0.00000   0.00009   0.00007   0.00004
   5        2PZ         0.00000   0.00003  -0.00002  -0.00006   0.00004
   6        3S         -0.00070  -0.00089   0.00442   0.00414   0.00114
   7        3PX         0.00040   0.00013  -0.00185  -0.00161   0.00199
   8        3PY        -0.00001   0.00087  -0.00215  -0.00070  -0.00140
   9        3PZ         0.00010  -0.00033   0.00068  -0.00036  -0.00064
  10        4XX         0.00002  -0.00003  -0.00055  -0.00004  -0.00175
  11        4YY         0.00003  -0.00000  -0.00018  -0.00017  -0.00158
  12        4ZZ         0.00002   0.00000  -0.00018  -0.00020  -0.00153
  13        4XY         0.00000  -0.00001   0.00000  -0.00002   0.00014
  14        4XZ        -0.00000  -0.00001  -0.00012   0.00005   0.00013
  15        4YZ        -0.00000  -0.00000  -0.00001   0.00001  -0.00011
  16 2   C  1S         -0.00000   0.00001  -0.00012   0.00008   0.93333
  17        2S         -0.00001   0.00005  -0.00042   0.00030   0.04409
  18        2PX         0.00001  -0.00003   0.00019  -0.00004  -0.00015
  19        2PY         0.00001   0.00001  -0.00010  -0.00003   0.00003
  20        2PZ         0.00002  -0.00000   0.00006  -0.00011  -0.00003
  21        3S          0.00001   0.00002   0.00132  -0.00184  -0.01749
  22        3PX        -0.00018   0.00018  -0.00144   0.00147   0.00157
  23        3PY        -0.00006   0.00006  -0.00017   0.00042   0.00022
  24        3PZ        -0.00018   0.00033  -0.00073   0.00022  -0.00065
  25        4XX        -0.00001  -0.00002  -0.00001   0.00002  -0.00690
  26        4YY        -0.00001   0.00001  -0.00008   0.00010  -0.00724
  27        4ZZ        -0.00000   0.00004  -0.00016   0.00002  -0.00686
  28        4XY        -0.00000  -0.00000  -0.00002  -0.00003   0.00011
  29        4XZ        -0.00000  -0.00001  -0.00001   0.00004   0.00015
  30        4YZ        -0.00000   0.00002  -0.00000   0.00004   0.00003
  31 3   C  1S          0.00001   0.00000   0.00004  -0.00014   0.28887
  32        2S          0.00004   0.00001   0.00017  -0.00042   0.01343
  33        2PX        -0.00001  -0.00001   0.00000   0.00020   0.00001
  34        2PY        -0.00002   0.00001   0.00001   0.00005  -0.00005
  35        2PZ        -0.00001  -0.00001   0.00003  -0.00006   0.00002
  36        3S         -0.00043  -0.00006  -0.00124   0.00185  -0.00135
  37        3PX         0.00019  -0.00006   0.00097  -0.00113   0.00082
  38        3PY         0.00019   0.00005  -0.00077   0.00031   0.00210
  39        3PZ         0.00011  -0.00011   0.00044   0.00027  -0.00006
  40        4XX         0.00002   0.00001   0.00003  -0.00007  -0.00238
  41        4YY         0.00001   0.00000   0.00006  -0.00011  -0.00257
  42        4ZZ         0.00001   0.00003  -0.00001  -0.00014  -0.00227
  43        4XY         0.00000  -0.00001   0.00008  -0.00001  -0.00013
  44        4XZ         0.00001   0.00000  -0.00004  -0.00001  -0.00001
  45        4YZ         0.00000  -0.00000   0.00004   0.00001   0.00013
  46 4   C  1S          0.00001   0.00001  -0.00011   0.00158   0.02521
  47        2S          0.00016   0.00007  -0.00048  -0.00029   0.00074
  48        2PX        -0.00000  -0.00001   0.00011  -0.00003  -0.00016
  49        2PY        -0.00000   0.00002  -0.00017  -0.00003  -0.00012
  50        2PZ        -0.00002  -0.00001   0.00007   0.00005   0.00004
  51        3S         -0.00033  -0.00005   0.00185   0.00575   0.00261
  52        3PX         0.00067   0.00002  -0.00022  -0.00264   0.00101
  53        3PY        -0.00027  -0.00021   0.00159   0.00233   0.00127
  54        3PZ         0.00009   0.00031  -0.00063   0.00048  -0.00011
  55        4XX        -0.00011   0.00001  -0.00007  -0.00035  -0.00041
  56        4YY        -0.00000  -0.00002  -0.00003  -0.00025  -0.00033
  57        4ZZ         0.00000   0.00004  -0.00018  -0.00024  -0.00039
  58        4XY         0.00004   0.00001  -0.00004   0.00004   0.00000
  59        4XZ         0.00001  -0.00001  -0.00001   0.00011  -0.00003
  60        4YZ        -0.00001   0.00001   0.00001  -0.00004  -0.00002
  61 5   C  1S         -0.00005   0.00001   0.01948   0.99354  -0.00002
  62        2S         -0.00007   0.00006   0.00089   0.04688   0.00004
  63        2PX        -0.00060  -0.00002  -0.00004  -0.00083  -0.00003
  64        2PY        -0.00021  -0.00004  -0.00011  -0.00024   0.00001
  65        2PZ        -0.00017   0.00001   0.00000  -0.00035   0.00004
  66        3S          0.00125  -0.00076   0.00352  -0.02385  -0.00087
  67        3PX         0.00016  -0.00085   0.00171  -0.00249  -0.00061
  68        3PY         0.00017  -0.00032   0.00241  -0.00221  -0.00012
  69        3PZ        -0.00048  -0.00027   0.00060   0.00233   0.00029
  70        4XX         0.00043   0.00002  -0.00035  -0.00679  -0.00005
  71        4YY         0.00003  -0.00001  -0.00068  -0.00734   0.00003
  72        4ZZ         0.00003   0.00001  -0.00031  -0.00695  -0.00007
  73        4XY         0.00017   0.00000   0.00005   0.00027  -0.00004
  74        4XZ         0.00019   0.00000  -0.00001   0.00024   0.00002
  75        4YZ         0.00007   0.00001   0.00012   0.00006  -0.00000
  76 6   C  1S          0.00001  -0.00003   0.99325  -0.01972  -0.00035
  77        2S          0.00014   0.00039   0.04607  -0.00120  -0.00036
  78        2PX        -0.00004  -0.00005  -0.00038   0.00012  -0.00017
  79        2PY        -0.00000   0.00004   0.00032   0.00009  -0.00007
  80        2PZ        -0.00002  -0.00001  -0.00022   0.00003  -0.00001
  81        3S         -0.00008  -0.00194  -0.01166   0.00534   0.00182
  82        3PX         0.00054   0.00287  -0.00570  -0.00239   0.00131
  83        3PY         0.00076  -0.00241   0.00470  -0.00573   0.00000
  84        3PZ         0.00010   0.00123  -0.00251   0.00023   0.00012
  85        4XX        -0.00002  -0.00049  -0.00725  -0.00007  -0.00010
  86        4YY        -0.00008  -0.00039  -0.00739  -0.00022  -0.00009
  87        4ZZ         0.00002  -0.00016  -0.00788  -0.00005  -0.00017
  88        4XY        -0.00005   0.00043  -0.00064  -0.00008  -0.00003
  89        4XZ        -0.00002  -0.00019   0.00036   0.00005  -0.00005
  90        4YZ        -0.00000   0.00017  -0.00031   0.00009   0.00004
  91 7   O  1S          0.00002   0.99302  -0.00000  -0.00005  -0.00002
  92        2S          0.00007   0.02495   0.00089  -0.00025  -0.00009
  93        2PX        -0.00001   0.00084  -0.00008  -0.00004   0.00002
  94        2PY        -0.00003  -0.00073   0.00008   0.00001  -0.00000
  95        2PZ         0.00001   0.00035  -0.00001  -0.00003  -0.00004
  96        3S         -0.00030   0.01306  -0.00626   0.00084   0.00049
  97        3PX        -0.00011   0.00111  -0.00200   0.00070  -0.00005
  98        3PY        -0.00001  -0.00096   0.00174   0.00051  -0.00013
  99        3PZ        -0.00005   0.00046  -0.00087   0.00018   0.00016
 100        4XX         0.00005  -0.00729   0.00019   0.00001  -0.00006
 101        4YY         0.00008  -0.00735   0.00030  -0.00020  -0.00001
 102        4ZZ         0.00009  -0.00752   0.00067  -0.00025  -0.00007
 103        4XY         0.00000  -0.00026   0.00042   0.00002  -0.00001
 104        4XZ        -0.00002   0.00013  -0.00024   0.00010   0.00003
 105        4YZ         0.00001  -0.00012   0.00022  -0.00003  -0.00001
 106 8   F  1S          0.99326   0.00005  -0.00008  -0.00017  -0.00002
 107        2S          0.01980   0.00025  -0.00046  -0.00059  -0.00012
 108        2PX         0.00071   0.00001  -0.00004   0.00001  -0.00002
 109        2PY         0.00024   0.00001   0.00001  -0.00002  -0.00001
 110        2PZ         0.00027   0.00001  -0.00002   0.00005   0.00001
 111        3S          0.01271  -0.00094   0.00166   0.00319   0.00033
 112        3PX        -0.00064  -0.00012   0.00028  -0.00035   0.00012
 113        3PY        -0.00024   0.00000  -0.00010   0.00002   0.00004
 114        3PZ        -0.00022  -0.00008   0.00011  -0.00049  -0.00008
 115        4XX        -0.00765   0.00018  -0.00028  -0.00116  -0.00006
 116        4YY        -0.00726   0.00020  -0.00026  -0.00037  -0.00007
 117        4ZZ        -0.00730   0.00019  -0.00032  -0.00033  -0.00011
 118        4XY        -0.00018   0.00001   0.00002  -0.00032   0.00001
 119        4XZ        -0.00017  -0.00002   0.00003  -0.00049  -0.00000
 120        4YZ        -0.00005   0.00000  -0.00005  -0.00016  -0.00000
 121 9   H  1S          0.00003  -0.00000   0.00005  -0.00012  -0.00014
 122        2S          0.00004  -0.00037   0.00064   0.00022   0.00056
 123        3PX        -0.00000  -0.00004   0.00002  -0.00001  -0.00000
 124        3PY         0.00000   0.00001  -0.00005  -0.00005   0.00001
 125        3PZ        -0.00000  -0.00002   0.00001   0.00002  -0.00002
 126 10  H  1S          0.00001   0.00005  -0.00029  -0.00016  -0.00023
 127        2S          0.00001   0.00018  -0.00004  -0.00026   0.00046
 128        3PX        -0.00001   0.00002  -0.00012   0.00009   0.00002
 129        3PY         0.00000  -0.00002   0.00003   0.00005  -0.00001
 130        3PZ         0.00000  -0.00001  -0.00006  -0.00002   0.00002
 131 11  H  1S          0.00003  -0.00002   0.00008  -0.00007  -0.00017
 132        2S          0.00007  -0.00016   0.00076  -0.00036   0.00212
 133        3PX        -0.00000   0.00001  -0.00004  -0.00001   0.00026
 134        3PY        -0.00000   0.00000  -0.00002   0.00001   0.00007
 135        3PZ         0.00000  -0.00001   0.00002   0.00002   0.00015
 136 12  H  1S         -0.00004   0.00001  -0.00022   0.00023  -0.00007
 137        2S         -0.00007   0.00022  -0.00046   0.00019   0.00273
 138        3PX         0.00001  -0.00001   0.00009  -0.00006  -0.00014
 139        3PY         0.00001  -0.00000  -0.00001  -0.00003  -0.00003
 140        3PZ        -0.00000   0.00001   0.00001   0.00001  -0.00024
 141 13  H  1S          0.00003   0.00000  -0.00002  -0.00001  -0.00014
 142        2S          0.00002   0.00002  -0.00020   0.00058   0.00080
 143        3PX         0.00000   0.00000  -0.00003  -0.00004   0.00002
 144        3PY        -0.00000  -0.00000   0.00002   0.00003  -0.00003
 145        3PZ         0.00000   0.00000  -0.00006   0.00002  -0.00006
 146 14  H  1S         -0.00000  -0.00001   0.00012  -0.00013  -0.00023
 147        2S          0.00001   0.00011  -0.00042  -0.00032   0.00079
 148        3PX        -0.00001  -0.00000  -0.00002   0.00009  -0.00001
 149        3PY        -0.00001   0.00000   0.00002  -0.00001   0.00004
 150        3PZ        -0.00000   0.00000   0.00002  -0.00002   0.00004
 151 15  H  1S          0.00008   0.00002  -0.00024  -0.00033  -0.00018
 152        2S          0.00002   0.00020  -0.00040  -0.00011  -0.00030
 153        3PX        -0.00003   0.00000   0.00002  -0.00004  -0.00004
 154        3PY         0.00001   0.00001  -0.00009   0.00001  -0.00007
 155        3PZ        -0.00001   0.00000   0.00002   0.00006   0.00002
 156 16  H  1S          0.00002  -0.00001   0.00006  -0.00010  -0.00003
 157        2S         -0.00008  -0.00018   0.00080   0.00017   0.00065
 158        3PX        -0.00005   0.00000   0.00001   0.00006   0.00002
 159        3PY        -0.00001  -0.00001   0.00005   0.00003   0.00005
 160        3PZ         0.00000  -0.00001   0.00001  -0.00000  -0.00001
 161 17  H  1S         -0.00002   0.00004  -0.00026   0.00002   0.00007
 162        2S         -0.00004   0.00011   0.00014   0.00258  -0.00019
 163        3PX         0.00007   0.00003  -0.00005   0.00014   0.00001
 164        3PY         0.00002  -0.00001   0.00009   0.00004  -0.00001
 165        3PZ         0.00008   0.00000  -0.00007   0.00025  -0.00001
                           6         7         8         9        10
                           O         O         O         O         O
     Eigenvalues --   -10.24811 -10.24785 -10.24730  -1.22401  -1.05740
   1 1   C  1S         -0.16360   0.96365  -0.00749  -0.00113  -0.02111
   2        2S         -0.00814   0.04616  -0.00005   0.00215   0.03853
   3        2PX        -0.00011  -0.00005   0.00003  -0.00155  -0.02623
   4        2PY         0.00017  -0.00017  -0.00002  -0.00121  -0.00390
   5        2PZ        -0.00006   0.00012   0.00008  -0.00015  -0.00632
   6        3S          0.00403  -0.02390  -0.00205   0.00541   0.00305
   7        3PX        -0.00086   0.00115   0.00029  -0.00568  -0.00377
   8        3PY        -0.00096   0.00260   0.00133   0.00415   0.01618
   9        3PZ         0.00041   0.00146  -0.00005  -0.00211  -0.00711
  10        4XX         0.00126  -0.00730   0.00017   0.00033   0.00662
  11        4YY         0.00122  -0.00704   0.00006  -0.00007  -0.00148
  12        4ZZ         0.00110  -0.00694   0.00008   0.00003  -0.00080
  13        4XY        -0.00004   0.00002  -0.00003   0.00007   0.00082
  14        4XZ        -0.00006  -0.00003  -0.00000   0.00012   0.00207
  15        4YZ         0.00005  -0.00010  -0.00004   0.00001   0.00041
  16 2   C  1S         -0.26174  -0.21708   0.02102  -0.00045  -0.00489
  17        2S         -0.01264  -0.01055   0.00058   0.00070   0.01002
  18        2PX         0.00008   0.00009   0.00009  -0.00101  -0.00585
  19        2PY         0.00002   0.00003   0.00017  -0.00037   0.00199
  20        2PZ        -0.00000  -0.00000   0.00005  -0.00023   0.00133
  21        3S          0.00986   0.01030   0.00067   0.00537   0.00731
  22        3PX        -0.00084  -0.00265  -0.00108   0.00199   0.00372
  23        3PY        -0.00301   0.00120  -0.00015   0.00063   0.00191
  24        3PZ         0.00045   0.00088  -0.00020   0.00583   0.00860
  25        4XX         0.00177   0.00128  -0.00023   0.00018   0.00016
  26        4YY         0.00159   0.00126  -0.00019   0.00004   0.00025
  27        4ZZ         0.00174   0.00134  -0.00028   0.00003   0.00017
  28        4XY        -0.00004   0.00010   0.00003   0.00008  -0.00046
  29        4XZ        -0.00003   0.00007  -0.00001  -0.00009  -0.00055
  30        4YZ         0.00010  -0.00011  -0.00001  -0.00002   0.00035
  31 3   C  1S          0.93307   0.10366  -0.14967  -0.00087  -0.00242
  32        2S          0.04432   0.00456  -0.00729   0.00212   0.00511
  33        2PX        -0.00013  -0.00002   0.00007  -0.00166  -0.00202
  34        2PY         0.00009  -0.00019  -0.00004   0.00029   0.00202
  35        2PZ         0.00008  -0.00005  -0.00000   0.00012  -0.00025
  36        3S         -0.02100  -0.00155   0.00801   0.00269  -0.00071
  37        3PX         0.00155  -0.00067  -0.00277   0.00011  -0.00053
  38        3PY        -0.00252   0.00012  -0.00052  -0.00587   0.00078
  39        3PZ         0.00052   0.00046  -0.00027  -0.00343  -0.00439
  40        4XX        -0.00691  -0.00084   0.00070   0.00014   0.00031
  41        4YY        -0.00687  -0.00077   0.00086   0.00010   0.00022
  42        4ZZ        -0.00665  -0.00085   0.00090   0.00008   0.00017
  43        4XY        -0.00014  -0.00002  -0.00010   0.00013  -0.00036
  44        4XZ        -0.00010  -0.00002  -0.00008   0.00006   0.00009
  45        4YZ         0.00005  -0.00001  -0.00004   0.00006  -0.00012
  46 4   C  1S          0.14632   0.02792   0.98200  -0.00949  -0.00309
  47        2S          0.00679   0.00168   0.04673   0.01407   0.00758
  48        2PX        -0.00000   0.00004  -0.00004  -0.01372  -0.00060
  49        2PY         0.00003   0.00003   0.00018   0.00613   0.00478
  50        2PZ        -0.00002  -0.00009  -0.00001   0.00400   0.00063
  51        3S          0.00179  -0.00248  -0.02198   0.01693   0.00279
  52        3PX         0.00220   0.00004  -0.00057  -0.01442   0.00167
  53        3PY         0.00046  -0.00149  -0.00242   0.00681  -0.00487
  54        3PZ         0.00020   0.00005  -0.00092  -0.00039   0.00818
  55        4XX        -0.00152  -0.00015  -0.00741   0.00352  -0.00011
  56        4YY        -0.00122  -0.00020  -0.00717   0.00036   0.00019
  57        4ZZ        -0.00120  -0.00017  -0.00715  -0.00042   0.00032
  58        4XY        -0.00006  -0.00003   0.00005  -0.00269  -0.00007
  59        4XZ        -0.00007  -0.00004   0.00003  -0.00153  -0.00017
  60        4YZ        -0.00004  -0.00005  -0.00011   0.00102   0.00036
  61 5   C  1S         -0.00030  -0.00008  -0.00185  -0.06343  -0.01324
  62        2S         -0.00035  -0.00068  -0.00029   0.11906   0.02451
  63        2PX        -0.00009  -0.00005  -0.00001  -0.08779   0.00926
  64        2PY         0.00012  -0.00009  -0.00000  -0.02859   0.03137
  65        2PZ        -0.00002  -0.00004   0.00005  -0.03454  -0.00390
  66        3S          0.00194   0.00433   0.00517   0.01222   0.00029
  67        3PX         0.00162   0.00093   0.00156   0.00212  -0.01529
  68        3PY         0.00005   0.00124  -0.00184  -0.00105   0.00005
  69        3PZ         0.00029  -0.00047  -0.00118   0.01049  -0.00654
  70        4XX        -0.00011  -0.00018  -0.00026   0.01422  -0.00255
  71        4YY        -0.00017  -0.00013  -0.00032  -0.00638   0.00723
  72        4ZZ        -0.00014  -0.00023  -0.00019  -0.00688  -0.00001
  73        4XY         0.00003  -0.00002   0.00014   0.00908  -0.00164
  74        4XZ        -0.00002  -0.00001   0.00012   0.00986  -0.00075
  75        4YZ        -0.00001  -0.00004  -0.00013   0.00339  -0.00277
  76 6   C  1S          0.00033  -0.00176  -0.00001  -0.01191  -0.11844
  77        2S          0.00025  -0.00021  -0.00039   0.01984   0.22388
  78        2PX         0.00009  -0.00006   0.00001  -0.01067  -0.12173
  79        2PY         0.00004  -0.00010   0.00016  -0.01036   0.10732
  80        2PZ        -0.00004   0.00000   0.00000  -0.00045  -0.05075
  81        3S         -0.00288   0.00440   0.00180   0.01544   0.08210
  82        3PX        -0.00179   0.00415   0.00094  -0.00920   0.04413
  83        3PY         0.00017   0.00273  -0.00080  -0.01459  -0.03533
  84        3PZ        -0.00027   0.00020   0.00026  -0.00179   0.01834
  85        4XX         0.00007  -0.00041  -0.00007   0.00053   0.00450
  86        4YY         0.00009  -0.00018  -0.00005   0.00463  -0.00106
  87        4ZZ         0.00008  -0.00013  -0.00017  -0.00134  -0.01298
  88        4XY         0.00009  -0.00012  -0.00005   0.00145  -0.02002
  89        4XZ        -0.00002  -0.00007  -0.00004   0.00041   0.01005
  90        4YZ         0.00003  -0.00006   0.00001  -0.00101  -0.00867
  91 7   O  1S          0.00000  -0.00004  -0.00001  -0.00822  -0.19260
  92        2S          0.00001  -0.00019  -0.00005   0.01690   0.41759
  93        2PX        -0.00001  -0.00001   0.00001   0.00408   0.11073
  94        2PY        -0.00000   0.00005  -0.00003  -0.00697  -0.09474
  95        2PZ         0.00001  -0.00001  -0.00003   0.00232   0.04671
  96        3S         -0.00016   0.00052   0.00046   0.01491   0.41958
  97        3PX         0.00019  -0.00035  -0.00002   0.00152   0.04804
  98        3PY         0.00002  -0.00068   0.00003  -0.00151  -0.04030
  99        3PZ        -0.00005   0.00009   0.00013   0.00113   0.02032
 100        4XX         0.00004  -0.00014  -0.00002  -0.00038   0.00157
 101        4YY        -0.00002   0.00004  -0.00003   0.00049  -0.00133
 102        4ZZ        -0.00001  -0.00019  -0.00002  -0.00070  -0.00358
 103        4XY        -0.00004  -0.00003   0.00002  -0.00017  -0.01211
 104        4XZ        -0.00000   0.00003  -0.00001   0.00025   0.00444
 105        4YZ         0.00000  -0.00008  -0.00002  -0.00031  -0.00376
 106 8   F  1S         -0.00009  -0.00005   0.00002  -0.21969   0.02010
 107        2S         -0.00050  -0.00028   0.00006   0.49157  -0.04246
 108        2PX        -0.00005  -0.00002  -0.00002   0.08152  -0.00068
 109        2PY         0.00002  -0.00003  -0.00000   0.02657   0.00594
 110        2PZ        -0.00001  -0.00001   0.00001   0.02925  -0.00168
 111        3S          0.00178   0.00078  -0.00060   0.46395  -0.05656
 112        3PX         0.00030   0.00004  -0.00013   0.04782  -0.00258
 113        3PY        -0.00002   0.00008   0.00003   0.01470   0.00401
 114        3PZ         0.00009   0.00006  -0.00005   0.01676  -0.00226
 115        4XX        -0.00030  -0.00020   0.00012   0.02516  -0.00018
 116        4YY        -0.00037  -0.00018   0.00004   0.01032   0.00161
 117        4ZZ        -0.00036  -0.00025  -0.00000   0.01098   0.00005
 118        4XY        -0.00001   0.00001  -0.00007   0.00667   0.00041
 119        4XZ         0.00000   0.00003  -0.00005   0.00664  -0.00029
 120        4YZ         0.00003  -0.00001   0.00009   0.00233  -0.00015
 121 9   H  1S          0.00006   0.00006  -0.00001  -0.00025   0.00925
 122        2S          0.00016   0.00251  -0.00036  -0.00164  -0.00313
 123        3PX         0.00001   0.00000  -0.00001   0.00002  -0.00105
 124        3PY        -0.00008   0.00023  -0.00001  -0.00004  -0.00122
 125        3PZ         0.00003  -0.00019  -0.00002  -0.00004   0.00024
 126 10  H  1S         -0.00006   0.00006   0.00018   0.00065   0.00814
 127        2S         -0.00092   0.00272   0.00011   0.00021   0.00329
 128        3PX        -0.00003  -0.00000   0.00000   0.00008   0.00018
 129        3PY         0.00011  -0.00010  -0.00006  -0.00017  -0.00031
 130        3PZ        -0.00004   0.00033  -0.00001   0.00002  -0.00088
 131 11  H  1S         -0.00008  -0.00009   0.00003  -0.00049   0.00083
 132        2S         -0.00052  -0.00045   0.00069  -0.00231  -0.00407
 133        3PX        -0.00010  -0.00009  -0.00003   0.00014  -0.00006
 134        3PY        -0.00002  -0.00005  -0.00003   0.00005   0.00002
 135        3PZ        -0.00004  -0.00004  -0.00001  -0.00011  -0.00023
 136 12  H  1S         -0.00020  -0.00028  -0.00012   0.00067   0.00278
 137        2S         -0.00085  -0.00071  -0.00032   0.00215   0.00474
 138        3PX         0.00005   0.00001   0.00007  -0.00010  -0.00022
 139        3PY        -0.00004   0.00004   0.00007  -0.00006  -0.00007
 140        3PZ         0.00011   0.00011  -0.00001   0.00007   0.00032
 141 13  H  1S         -0.00010   0.00003  -0.00009  -0.00038   0.00057
 142        2S          0.00202   0.00083  -0.00031  -0.00188  -0.00053
 143        3PX         0.00018   0.00000  -0.00005   0.00001   0.00006
 144        3PY        -0.00017   0.00002   0.00005   0.00003  -0.00003
 145        3PZ        -0.00023  -0.00001   0.00004  -0.00003   0.00012
 146 14  H  1S          0.00008  -0.00009  -0.00023   0.00084   0.00119
 147        2S          0.00276  -0.00001  -0.00042   0.00019   0.00357
 148        3PX        -0.00007   0.00002  -0.00003  -0.00007  -0.00010
 149        3PY         0.00006  -0.00009  -0.00002   0.00018   0.00007
 150        3PZ         0.00031   0.00002  -0.00009   0.00005  -0.00016
 151 15  H  1S         -0.00021   0.00019   0.00009   0.00258   0.00224
 152        2S          0.00052   0.00029   0.00290   0.00041   0.00430
 153        3PX         0.00004   0.00003  -0.00002  -0.00020   0.00004
 154        3PY         0.00004   0.00007   0.00013  -0.00001   0.00026
 155        3PZ         0.00000   0.00000  -0.00028   0.00062   0.00018
 156 16  H  1S         -0.00015  -0.00004  -0.00007   0.00282   0.00022
 157        2S          0.00024  -0.00029   0.00226   0.00283  -0.00451
 158        3PX        -0.00002  -0.00002  -0.00004   0.00009  -0.00006
 159        3PY        -0.00002   0.00000  -0.00028   0.00059  -0.00008
 160        3PZ         0.00003   0.00003   0.00017  -0.00016  -0.00019
 161 17  H  1S         -0.00017  -0.00019  -0.00019   0.01873   0.00530
 162        2S         -0.00032  -0.00024   0.00012   0.00156   0.00146
 163        3PX        -0.00011  -0.00006   0.00005  -0.00148   0.00053
 164        3PY         0.00001  -0.00008  -0.00001  -0.00007  -0.00007
 165        3PZ        -0.00001  -0.00002  -0.00004  -0.00439  -0.00028
                          11        12        13        14        15
                           O         O         O         O         O
     Eigenvalues --    -0.87130  -0.78694  -0.75762  -0.65655  -0.62355
   1 1   C  1S         -0.08403  -0.11889   0.07222  -0.08680  -0.00936
   2        2S          0.15432   0.21943  -0.13758   0.16601   0.01717
   3        2PX         0.00554   0.02581   0.06677  -0.04971  -0.13305
   4        2PY        -0.04636  -0.01613   0.00297   0.06505  -0.00582
   5        2PZ        -0.01433  -0.01746  -0.01303   0.02357   0.05880
   6        3S          0.11921   0.21572  -0.12429   0.19809   0.03274
   7        3PX         0.00238  -0.00094   0.00704  -0.01918  -0.03930
   8        3PY        -0.00912  -0.00898   0.00089   0.01359  -0.01085
   9        3PZ        -0.00249  -0.00349  -0.00333   0.00685   0.01870
  10        4XX         0.00084   0.00025  -0.00115  -0.00321   0.00148
  11        4YY         0.00105  -0.00230   0.00265  -0.00329  -0.00133
  12        4ZZ        -0.00281  -0.00231   0.00183  -0.00019  -0.00176
  13        4XY        -0.00098  -0.00325  -0.00687   0.00304   0.00774
  14        4XZ        -0.00174  -0.00214  -0.00153   0.00309   0.00479
  15        4YZ         0.00282   0.00221   0.00088  -0.00266  -0.00236
  16 2   C  1S         -0.09831  -0.09517  -0.05987   0.07904   0.09180
  17        2S          0.17901   0.17720   0.11223  -0.15184  -0.17708
  18        2PX        -0.03803  -0.02423   0.03448  -0.06091  -0.03673
  19        2PY        -0.01953   0.05221  -0.08075   0.05409  -0.10556
  20        2PZ         0.02220   0.01939  -0.00545   0.02148   0.05682
  21        3S          0.14114   0.15513   0.10421  -0.17150  -0.21554
  22        3PX        -0.01024  -0.00375   0.00672  -0.01409  -0.00280
  23        3PY        -0.00473   0.00852  -0.01366   0.01614  -0.03024
  24        3PZ         0.00299   0.00204  -0.00010   0.00478   0.01592
  25        4XX        -0.00063   0.00027  -0.00582   0.00306   0.00012
  26        4YY         0.00312  -0.00196   0.00507   0.00227   0.00877
  27        4ZZ        -0.00374  -0.00196  -0.00200   0.00084  -0.00078
  28        4XY        -0.00075  -0.00552   0.00423  -0.00388   0.00020
  29        4XZ        -0.00295  -0.00253   0.00219  -0.00281  -0.00232
  30        4YZ        -0.00046   0.00306  -0.00409   0.00361  -0.00423
  31 3   C  1S         -0.10140   0.02102  -0.12046   0.01837  -0.10511
  32        2S          0.18539  -0.04060   0.22401  -0.03722   0.20232
  33        2PX        -0.03614   0.05790   0.01566  -0.08565   0.03731
  34        2PY         0.03042   0.06375   0.00666  -0.08921  -0.06828
  35        2PZ        -0.01314   0.00039  -0.01632  -0.00361   0.05525
  36        3S          0.14048  -0.02670   0.21848  -0.03076   0.24616
  37        3PX        -0.00663   0.00545  -0.00158  -0.02698   0.00090
  38        3PY         0.00790   0.01039   0.00224  -0.02288  -0.01378
  39        3PZ        -0.00083  -0.00030  -0.00401  -0.00168   0.02174
  40        4XX         0.00150  -0.00734  -0.00304   0.00686  -0.00376
  41        4YY         0.00196   0.00723   0.00001  -0.00524  -0.00756
  42        4ZZ        -0.00467   0.00055  -0.00276  -0.00056   0.00130
  43        4XY         0.00173  -0.00175   0.00250   0.00208  -0.00491
  44        4XZ         0.00133  -0.00193   0.00042   0.00375  -0.00139
  45        4YZ        -0.00150  -0.00238  -0.00116   0.00389   0.00324
  46 4   C  1S         -0.09522   0.11378  -0.02560  -0.10045   0.05895
  47        2S          0.17392  -0.21187   0.04709   0.19348  -0.11391
  48        2PX         0.01795   0.02522   0.09412   0.01565   0.13148
  49        2PY         0.04113  -0.01616  -0.02638  -0.06666   0.02480
  50        2PZ         0.02046  -0.02147  -0.01434  -0.03445   0.03551
  51        3S          0.13775  -0.19479   0.04469   0.20984  -0.14451
  52        3PX         0.00750  -0.00256   0.01225  -0.00020   0.03675
  53        3PY         0.00967  -0.00560  -0.00442  -0.01793   0.00016
  54        3PZ         0.00380  -0.00472  -0.00072  -0.00901   0.01070
  55        4XX         0.00294  -0.00033   0.00444  -0.00470   0.00637
  56        4YY        -0.00038   0.00200  -0.00412  -0.00269  -0.00012
  57        4ZZ        -0.00361   0.00241  -0.00160  -0.00069  -0.00126
  58        4XY         0.00047   0.00341   0.00737   0.00247   0.00364
  59        4XZ         0.00002   0.00187   0.00475   0.00254   0.00532
  60        4YZ         0.00285  -0.00218  -0.00205  -0.00302   0.00154
  61 5   C  1S         -0.07058   0.08784   0.09768   0.08145   0.02155
  62        2S          0.13587  -0.17188  -0.19566  -0.16935  -0.04652
  63        2PX         0.06761  -0.05732  -0.02447   0.06200  -0.00277
  64        2PY         0.00569   0.03375  -0.06929  -0.10472   0.14361
  65        2PZ        -0.01088   0.01376  -0.01478  -0.05763   0.04848
  66        3S          0.09921  -0.15086  -0.16539  -0.16820  -0.03456
  67        3PX         0.02080  -0.02486  -0.02405  -0.00356  -0.00279
  68        3PY         0.00391  -0.00308  -0.01612  -0.03828   0.03997
  69        3PZ        -0.00147   0.00001  -0.00880  -0.02518   0.01162
  70        4XX        -0.00135   0.00279   0.00690   0.00372  -0.00108
  71        4YY         0.00149  -0.00030  -0.00322   0.00187   0.00338
  72        4ZZ        -0.00201   0.00084   0.00190   0.00090  -0.00197
  73        4XY        -0.00208   0.00617  -0.00302  -0.00389   0.00349
  74        4XZ        -0.00448   0.00429   0.00131  -0.00312   0.00118
  75        4YZ         0.00090  -0.00217   0.00179   0.00529  -0.00547
  76 6   C  1S         -0.04096  -0.00802   0.07997   0.01317  -0.06808
  77        2S          0.07945   0.01480  -0.15999  -0.02812   0.14281
  78        2PX         0.08280   0.08094  -0.09051   0.10371   0.06174
  79        2PY        -0.06315   0.06792   0.09721   0.14066  -0.02535
  80        2PZ         0.02842   0.00509  -0.05795  -0.01633   0.05920
  81        3S          0.04997   0.01054  -0.12865  -0.02845   0.12198
  82        3PX         0.02052   0.00469  -0.03100   0.01594   0.02574
  83        3PY        -0.01347  -0.00199   0.02568   0.02509  -0.01892
  84        3PZ         0.00885   0.00181  -0.01863  -0.00456   0.02550
  85        4XX         0.00134   0.00740   0.00167   0.00483  -0.00184
  86        4YY         0.00242  -0.00683  -0.00386  -0.00465  -0.00253
  87        4ZZ        -0.00220  -0.00059   0.00372   0.00020  -0.00263
  88        4XY         0.00620   0.00386  -0.01095   0.00015   0.00504
  89        4XZ        -0.00107   0.00133   0.00088   0.00309   0.00098
  90        4YZ         0.00070   0.00222   0.00051   0.00424  -0.00013
  91 7   O  1S          0.04022   0.00977  -0.05377  -0.00518   0.03680
  92        2S         -0.09232  -0.02350   0.12350   0.01110  -0.08727
  93        2PX        -0.00702   0.01421  -0.00693   0.03506   0.03537
  94        2PY         0.00870   0.01711   0.00838   0.04823  -0.02333
  95        2PZ        -0.00436  -0.00026  -0.00755  -0.00610   0.02899
  96        3S         -0.08173  -0.02085   0.12982   0.01690  -0.09933
  97        3PX         0.00109   0.00729  -0.00709   0.01692   0.02009
  98        3PY         0.00008   0.00675   0.00690   0.02312  -0.01576
  99        3PZ        -0.00089   0.00009  -0.00421  -0.00318   0.01499
 100        4XX         0.00017   0.00232  -0.00136   0.00457   0.00189
 101        4YY        -0.00022  -0.00267  -0.00150  -0.00567   0.00026
 102        4ZZ        -0.00063  -0.00068   0.00031  -0.00054  -0.00091
 103        4XY         0.00026   0.00054   0.00111   0.00119  -0.00214
 104        4XZ        -0.00011   0.00071  -0.00119   0.00085   0.00288
 105        4YZ         0.00015   0.00056   0.00121   0.00209  -0.00220
 106 8   F  1S          0.02824  -0.03881  -0.03565  -0.03177  -0.02104
 107        2S         -0.06299   0.08585   0.07878   0.06845   0.04264
 108        2PX         0.03091  -0.06858  -0.06767  -0.08935  -0.10906
 109        2PY         0.00479  -0.01013  -0.03385  -0.08785   0.03026
 110        2PZ         0.00464  -0.01407  -0.02656  -0.06785  -0.00702
 111        3S         -0.07903   0.11836   0.10985   0.10843   0.08087
[...]
  77        2S          0.71422
  78        2PX         0.72187
  79        2PY         0.72148
  80        2PZ         0.48185
  81        3S          0.42535
  82        3PX         0.10749
  83        3PY         0.12397
  84        3PZ         0.25823
  85        4XX         0.01789
  86        4YY         0.01595
  87        4ZZ        -0.01609
  88        4XY         0.02054
  89        4XZ         0.01175
  90        4YZ         0.01035
  91 7   O  1S          1.99302
  92        2S          0.91635
  93        2PX         1.01180
  94        2PY         1.02603
  95        2PZ         0.78962
  96        3S          1.03858
  97        3PX         0.54924
  98        3PY         0.58637
  99        3PZ         0.52343
 100        4XX        -0.00253
 101        4YY        -0.00444
 102        4ZZ        -0.00199
 103        4XY         0.00794
 104        4XZ         0.00606
 105        4YZ         0.00459
 106 8   F  1S          1.99366
 107        2S          0.94994
 108        2PX         0.97434
 109        2PY         1.15978
 110        2PZ         1.16277
 111        3S          0.97022
 112        3PX         0.60051
 113        3PY         0.71837
 114        3PZ         0.71211
 115        4XX         0.03136
 116        4YY         0.01199
 117        4ZZ         0.01250
 118        4XY         0.00445
 119        4XZ         0.00438
 120        4YZ         0.00083
 121 9   H  1S          0.51988
 122        2S          0.29928
 123        3PX         0.00198
 124        3PY         0.00663
 125        3PZ         0.00292
 126 10  H  1S          0.51901
 127        2S          0.31299
 128        3PX         0.00257
 129        3PY         0.00240
 130        3PZ         0.00714
 131 11  H  1S          0.52575
 132        2S          0.32208
 133        3PX         0.00642
 134        3PY         0.00262
 135        3PZ         0.00259
 136 12  H  1S          0.52425
 137        2S          0.31964
 138        3PX         0.00223
 139        3PY         0.00221
 140        3PZ         0.00707
 141 13  H  1S          0.52504
 142        2S          0.31981
 143        3PX         0.00438
 144        3PY         0.00390
 145        3PZ         0.00333
 146 14  H  1S          0.52533
 147        2S          0.33114
 148        3PX         0.00237
 149        3PY         0.00229
 150        3PZ         0.00689
 151 15  H  1S          0.52175
 152        2S          0.31317
 153        3PX         0.00229
 154        3PY         0.00219
 155        3PZ         0.00713
 156 16  H  1S          0.52437
 157        2S          0.31443
 158        3PX         0.00237
 159        3PY         0.00671
 160        3PZ         0.00264
 161 17  H  1S          0.53222
 162        2S          0.31853
 163        3PX         0.00160
 164        3PY         0.00252
 165        3PZ         0.00770
          Condensed to atoms (all electrons):
              1          2          3          4          5          6
     1  C    5.305093   0.310011  -0.055199  -0.001090  -0.115086   0.277843
     2  C    0.310011   5.046725   0.356335  -0.055674  -0.000934  -0.033762
     3  C   -0.055199   0.356335   5.079496   0.289488  -0.038030  -0.005427
     4  C   -0.001090  -0.055674   0.289488   5.170316   0.322801  -0.041225
     5  C   -0.115086  -0.000934  -0.038030   0.322801   4.891665   0.251291
     6  C    0.277843  -0.033762  -0.005427  -0.041225   0.251291   4.743749
     7  O   -0.079942   0.002104   0.000145   0.001522  -0.067779   0.561517
     8  F    0.002044   0.000015   0.002619  -0.034027   0.245671  -0.024403
     9  H    0.370555  -0.029611   0.004553  -0.000271   0.004486  -0.023487
    10  H    0.372533  -0.036096  -0.003065  -0.001378   0.003377  -0.033062
    11  H   -0.029739   0.384831  -0.031695   0.005124  -0.000186   0.003634
    12  H   -0.044247   0.396110  -0.041381  -0.005020   0.000271  -0.002965
    13  H    0.004869  -0.032543   0.382914  -0.025429   0.003665   0.000172
    14  H   -0.002351  -0.043918   0.392034  -0.043740  -0.003467  -0.002326
    15  H    0.001527  -0.005434  -0.034883   0.384232  -0.034788  -0.007882
    16  H   -0.000548   0.005241  -0.030327   0.383975  -0.028962   0.004692
    17  H    0.008748  -0.001247   0.002270  -0.053928   0.380340  -0.060428
              7          8          9         10         11         12
     1  C   -0.079942   0.002044   0.370555   0.372533  -0.029739  -0.044247
     2  C    0.002104   0.000015  -0.029611  -0.036096   0.384831   0.396110
     3  C    0.000145   0.002619   0.004553  -0.003065  -0.031695  -0.041381
     4  C    0.001522  -0.034027  -0.000271  -0.001378   0.005124  -0.005020
     5  C   -0.067779   0.245671   0.004486   0.003377  -0.000186   0.000271
     6  C    0.561517  -0.024403  -0.023487  -0.033062   0.003634  -0.002965
     7  O    8.022538  -0.000186   0.003979   0.000553  -0.000074   0.000342
     8  F   -0.000186   9.143153  -0.000022  -0.000011   0.000001  -0.000005
     9  H    0.003979  -0.000022   0.529549  -0.021883  -0.002672  -0.004056
    10  H    0.000553  -0.000011  -0.021883   0.559256  -0.006569   0.005428
    11  H   -0.000074   0.000001  -0.002672  -0.006569   0.575598  -0.031609
    12  H    0.000342  -0.000005  -0.004056   0.005428  -0.031609   0.577338
    13  H    0.000001  -0.000036  -0.000164  -0.000061  -0.002716  -0.004691
    14  H   -0.000014  -0.000003  -0.000050   0.004178  -0.004328   0.005637
    15  H    0.000241   0.001575  -0.000065   0.000084   0.000035   0.004169
    16  H   -0.000069   0.000749   0.000018  -0.000004  -0.000182   0.000005
    17  H   -0.000812  -0.029937  -0.000172   0.000834   0.000013   0.000070
             13         14         15         16         17
     1  C    0.004869  -0.002351   0.001527  -0.000548   0.008748
     2  C   -0.032543  -0.043918  -0.005434   0.005241  -0.001247
     3  C    0.382914   0.392034  -0.034883  -0.030327   0.002270
     4  C   -0.025429  -0.043740   0.384232   0.383975  -0.053928
     5  C    0.003665  -0.003467  -0.034788  -0.028962   0.380340
     6  C    0.000172  -0.002326  -0.007882   0.004692  -0.060428
     7  O    0.000001  -0.000014   0.000241  -0.000069  -0.000812
     8  F   -0.000036  -0.000003   0.001575   0.000749  -0.029937
     9  H   -0.000164  -0.000050  -0.000065   0.000018  -0.000172
    10  H   -0.000061   0.004178   0.000084  -0.000004   0.000834
    11  H   -0.002716  -0.004328   0.000035  -0.000182   0.000013
    12  H   -0.004691   0.005637   0.004169   0.000005   0.000070
    13  H    0.569684  -0.030955  -0.004928  -0.003146  -0.000182
    14  H   -0.030955   0.592158   0.005455  -0.004435   0.004146
    15  H   -0.004928   0.005455   0.564468  -0.033346   0.006069
    16  H   -0.003146  -0.004435  -0.033346   0.565658  -0.008799
    17  H   -0.000182   0.004146   0.006069  -0.008799   0.615597
 Mulliken atomic charges:
              1
     1  C   -0.325021
     2  C   -0.262154
     3  C   -0.269847
     4  C   -0.295677
     5  C    0.185665
     6  C    0.392068
     7  O   -0.444066
     8  F   -0.307198
     9  H    0.169313
    10  H    0.155889
    11  H    0.140534
    12  H    0.144604
    13  H    0.143545
    14  H    0.131980
    15  H    0.153470
    16  H    0.149479
    17  H    0.137418
 Sum of Mulliken atomic charges =  -0.00000
 Mulliken charges with hydrogens summed into heavy atoms:
              1
     1  C    0.000181
     2  C    0.022983
     3  C    0.005678
     4  C    0.007272
     5  C    0.323083
     6  C    0.392068
     7  O   -0.444066
     8  F   -0.307198
 Sum of Mulliken charges with hydrogens summed into heavy atoms =  -0.00000
 Electronic spatial extent (au):  <R**2>=            926.2656
 Charge=              0.0000 electrons
 Dipole moment (field-independent basis, Debye):
    X=              3.8562    Y=             -1.3948    Z=              1.1942  Tot=              4.2711
 Quadrupole moment (field-independent basis, Debye-Ang):
   XX=            -52.4279   YY=            -49.1152   ZZ=            -44.5791
   XY=              2.6906   XZ=             -1.7178   YZ=              1.0505
 Traceless Quadrupole moment (field-independent basis, Debye-Ang):
   XX=             -3.7205   YY=             -0.4078   ZZ=              4.1283
   XY=              2.6906   XZ=             -1.7178   YZ=              1.0505
 Octapole moment (field-independent basis, Debye-Ang**2):
  XXX=             -4.4437  YYY=             -8.9970  ZZZ=             -0.1720  XYY=              3.5999
  XXY=             -2.7180  XXZ=              1.5910  XZZ=             -6.7868  YZZ=             -1.0933
  YYZ=              1.4679  XYZ=             -0.6376
 Hexadecapole moment (field-independent basis, Debye-Ang**3):
 XXXX=           -589.6310 YYYY=           -446.8385 ZZZZ=            -93.9591 XXXY=              9.7582
 XXXZ=             -0.5078 YYYX=             20.8551 YYYZ=              0.3687 ZZZX=              1.8130
 ZZZY=             -0.4816 XXYY=           -181.3203 XXZZ=           -111.1257 YYZZ=            -90.0802
 XXYZ=              3.3419 YYXZ=             -3.4929 ZZXY=              3.5352
 N-N= 3.917979651339D+02 E-N=-1.740215086427D+03  KE= 4.054488342926D+02
 Orbital energies and kinetic energies (alpha):
                                 1                 2
   1         O               -24.764812         37.099251
   2         O               -19.218859         29.045750
   3         O               -10.326290         15.903881
   4         O               -10.319806         15.908717
   5         O               -10.248523         15.901377
   6         O               -10.248107         15.905094
   7         O               -10.247853         15.904229
   8         O               -10.247296         15.904104
   9         O                -1.224005          3.576911
  10         O                -1.057398          2.630658
  11         O                -0.871305          1.393871
  12         O                -0.786944          1.534648
  13         O                -0.757624          1.643024
  14         O                -0.656552          1.525760
  15         O                -0.623552          1.478148
  16         O                -0.573880          1.482096
  17         O                -0.523196          2.059232
  18         O                -0.505392          1.360664
  19         O                -0.492043          1.524361
  20         O                -0.474162          1.692066
  21         O                -0.459147          1.233741
  22         O                -0.445306          1.695176
  23         O                -0.422039          1.697007
  24         O                -0.402347          1.650597
  25         O                -0.394211          2.002734
  26         O                -0.371319          1.656089
  27         O                -0.365429          1.947297
  28         O                -0.356954          1.538639
  29         O                -0.344694          1.529925
  30         O                -0.330012          2.029250
  31         O                -0.255431          2.270122
  32         V                -0.021561          1.828226
  33         V                 0.084296          1.239126
  34         V                 0.107108          1.020108
  35         V                 0.133339          1.033665
  36         V                 0.138123          1.342671
  37         V                 0.153361          1.040213
  38         V                 0.166241          1.007098
  39         V                 0.169286          1.054688
  40         V                 0.174507          1.276764
  41         V                 0.183174          1.262593
  42         V                 0.193568          1.422937
  43         V                 0.215091          1.528810
  44         V                 0.236387          1.732425
  45         V                 0.247633          1.904434
  46         V                 0.276781          1.582362
  47         V                 0.287628          1.788643
  48         V                 0.337847          2.129832
  49         V                 0.370432          1.808715
  50         V                 0.519905          1.845918
  51         V                 0.525192          1.749916
  52         V                 0.543043          1.887852
  53         V                 0.557743          2.158616
  54         V                 0.560682          2.214352
  55         V                 0.577782          2.040177
  56         V                 0.607830          2.329473
  57         V                 0.628622          2.234121
  58         V                 0.642744          2.756844
  59         V                 0.674454          2.680069
  60         V                 0.683390          2.653674
  61         V                 0.702112          2.855022
  62         V                 0.733187          2.591105
  63         V                 0.758523          2.338759
  64         V                 0.769017          2.413727
  65         V                 0.793888          2.505924
  66         V                 0.807581          2.453207
  67         V                 0.836446          2.488208
  68         V                 0.857740          2.406994
  69         V                 0.867279          2.518236
  70         V                 0.879985          2.425425
  71         V                 0.902626          2.527412
  72         V                 0.921203          2.495797
  73         V                 0.927369          2.462985
  74         V                 0.932840          2.356345
  75         V                 0.945653          2.533394
  76         V                 0.955401          2.511918
  77         V                 1.017276          2.553320
  78         V                 1.083340          2.495052
  79         V                 1.091172          2.414616
  80         V                 1.119451          2.987222
  81         V                 1.158565          2.492471
  82         V                 1.197276          2.906027
  83         V                 1.246709          2.711212
  84         V                 1.337739          2.557329
  85         V                 1.344666          2.942977
  86         V                 1.386517          3.114198
  87         V                 1.406399          3.751274
  88         V                 1.440198          3.060162
  89         V                 1.460356          2.760680
  90         V                 1.489236          2.676611
  91         V                 1.587579          2.752816
  92         V                 1.594775          2.718478
  93         V                 1.611321          2.827407
  94         V                 1.635426          2.765409
  95         V                 1.677729          2.859727
  96         V                 1.703209          2.871535
  97         V                 1.726376          3.093185
  98         V                 1.777343          2.961092
  99         V                 1.807357          2.949346
 100         V                 1.827937          3.182905
 101         V                 1.848465          3.035839
 102         V                 1.870940          3.171698
 103         V                 1.878196          3.134811
 104         V                 1.901379          3.152487
 105         V                 1.917751          3.321114
 106         V                 1.944661          3.198695
 107         V                 1.964311          3.405031
 108         V                 1.967466          3.103280
 109         V                 1.981699          3.355401
 110         V                 1.999759          3.272568
 111         V                 2.025804          3.351133
 112         V                 2.089749          3.265992
 113         V                 2.104221          3.254251
 114         V                 2.138595          3.379575
 115         V                 2.146481          3.315140
 116         V                 2.170514          3.335201
 117         V                 2.193902          3.427684
 118         V                 2.233983          3.360933
 119         V                 2.251613          3.500203
 120         V                 2.280683          3.721388
 121         V                 2.294729          3.431793
 122         V                 2.323161          3.674455
 123         V                 2.325977          3.335459
 124         V                 2.350468          3.331502
 125         V                 2.397704          3.654852
 126         V                 2.420945          3.451659
 127         V                 2.448833          3.675981
 128         V                 2.474182          3.562619
 129         V                 2.501940          3.717098
 130         V                 2.518284          3.542565
 131         V                 2.565634          3.688708
 132         V                 2.596398          3.822494
 133         V                 2.625613          3.627704
 134         V                 2.667244          3.976602
 135         V                 2.671376          3.893625
 136         V                 2.739198          3.908051
 137         V                 2.748045          3.906447
 138         V                 2.779619          3.860774
 139         V                 2.812957          3.997144
 140         V                 2.850114          3.932379
 141         V                 2.864086          4.274186
 142         V                 2.889313          4.318185
 143         V                 2.923342          4.079222
 144         V                 2.936930          4.088932
 145         V                 2.951229          4.201707
 146         V                 3.016037          5.001429
 147         V                 3.061713          4.560265
 148         V                 3.132229          5.858824
 149         V                 3.233449          4.896279
 150         V                 3.301923          5.006155
 151         V                 3.313740          4.974717
 152         V                 3.346132          4.999027
 153         V                 3.399784          5.154175
 154         V                 3.478163          5.120682
 155         V                 3.486179          5.196658
 156         V                 3.520082          5.117295
 157         V                 3.578223          5.200096
 158         V                 4.001555         10.432815
 159         V                 4.235012         10.120503
 160         V                 4.397888         10.342896
 161         V                 4.463166         10.311873
 162         V                 4.652947         11.014061
 163         V                 4.742498         10.352614
 164         V                 4.779482         10.746145
 165         V                 4.882963         12.269887
 Total kinetic energy from orbitals= 4.054488342926D+02
 1\1\GINC-NEUMANN2\SP\RPBE1PBE TD-FC\6-31G(d,p)\C6H9F1O1\ANV\20-Nov-202
 3\0\\#N PBE1PBE 6-31G** td=(nstates=25) gfinput pop=full\\2fluorocyclo
 hexanone/2fluorocyclohexanone_1.dat\\0,1\C,0,0.,0.,0.\C,0,1.5232,0.,0.
 \C,0,2.0913,1.4177,0.\C,0,1.5677,2.2149,1.1908\C,0,0.0469,2.2648,1.214
 9\C,0,-0.5333,0.8617,1.1251\O,0,-1.4463,0.4672,1.8588\F,0,-0.3388,2.90
 75,2.3616\H,0,-0.3717,-1.0226,0.1227\H,0,-0.3908,0.3936,-0.9446\H,0,1.
 8913,-0.5454,-0.8761\H,0,1.8884,-0.5324,0.8873\H,0,3.1855,1.3747,0.039
 \H,0,1.8212,1.925,-0.934\H,0,1.9329,1.768,2.1242\H,0,1.967,3.2352,1.16
 47\H,0,-0.34,2.846,0.3713\\Version=EM64L-G09RevC.01\State=1-A\HF=-408.
 6764376\RMSD=3.198e-09\PG=C01 [X(C6H9F1O1)]\\@


 It is also a good rule not to put too much confidence in
 experimental results until they have been confirmed by
 Theory.
                             -- Sir Arthur Eddington
 Job cpu time:  0 days  0 hours 15 minutes 28.0 seconds.
 File lengths (MBytes):  RWF=    161 Int=      0 D2E=      0 Chk=     25 Scr=      1
 Normal termination of Gaussian 09 at Mon Nov 20 22:40:15 2023.
