
                                 *****************
                                 * O   R   C   A *
                                 *****************

                                            #,                                       
                                            ###                                      
                                            ####                                     
                                            #####                                    
                                            ######                                   
                                           ########,                                 
                                     ,,################,,,,,                         
                               ,,#################################,,                 
                          ,,##########################################,,             
                       ,#########################################, ''#####,          
                    ,#############################################,,   '####,        
                  ,##################################################,,,,####,       
                ,###########''''           ''''###############################       
              ,#####''   ,,,,##########,,,,          '''####'''          '####       
            ,##' ,,,,###########################,,,                        '##       
           ' ,,###''''                  '''############,,,                           
         ,,##''                                '''############,,,,        ,,,,,,###''
      ,#''                                            '''#######################'''  
     '                                                          ''''####''''         
             ,#######,   #######,   ,#######,      ##                                
            ,#'     '#,  ##    ##  ,#'     '#,    #''#        ,####,   ,####,        
            ##       ##  ##   ,#'  ##            #'  '#       #'       #'  '#        
            ##       ##  #######   ##           ,######,      #####,   #    #        
            '#,     ,#'  ##    ##  '#,     ,#' ,#      #,     #,   #   #,  ,#        
             '#######'   ##     ##  '#######'  #'      '#     '####' # '####'        



                #########################################################
                #                        -***-                          #
                #          Department of theory and spectroscopy        #
                #                                                       #
                #                      Frank Neese                      #
                #                                                       #
                #     Directorship, Architecture, Infrastructure        #
                #                    SHARK, DRIVERS                     #
                #        Core code/Algorithms in most modules           #
                #                                                       #
                #        Max Planck Institute fuer Kohlenforschung      #
                #                Kaiser Wilhelm Platz 1                 #
                #                 D-45470 Muelheim/Ruhr                 #
                #                      Germany                          #
                #                                                       #
                #                  All rights reserved                  #
                #                        -***-                          #
                #########################################################


                         Program Version 6.0.0  -   RELEASE  -


 With contributions from (in alphabetic order):
   Daniel Aravena         : Magnetic Suceptibility
   Michael Atanasov       : Ab Initio Ligand Field Theory (pilot matlab implementation)
   Alexander A. Auer      : GIAO ZORA, VPT2 properties, NMR spectrum
   Ute Becker             : All parallelization in ORCA, NUMFREQ, NUMCALC
   Giovanni Bistoni       : ED, misc. LED, open-shell LED, HFLD
   Martin Brehm           : Molecular dynamics
   Dmytro Bykov           : pre 5.0 version of the SCF Hessian
   Marcos Casanova-Páez   : Triplet and SCS-CIS(D). UHF-(DLPNO)-IP/EA/STEOM-CCSD. UHF-CVS-IP/STEOM-CCSD
   Vijay G. Chilkuri      : MRCI spin determinant printing, contributions to CSF-ICE
   Pauline Colinet        : FMM embedding
   Dipayan Datta          : RHF DLPNO-CCSD density
   Achintya Kumar Dutta   : EOM-CC, STEOM-CC
   Nicolas Foglia         : Exact transition moments, OPA infrastructure, MCD improvements
   Dmitry Ganyushin       : Spin-Orbit,Spin-Spin,Magnetic field MRCI
   Miquel Garcia          : C-PCM and meta-GGA Hessian, CCSD/C-PCM, Gaussian charge scheme
   Tiago L. C. Gouveia    : GS-ROHF, GS-ROCIS
   Yang Guo               : DLPNO-NEVPT2, F12-NEVPT2, CIM, IAO-localization
   Andreas Hansen         : Spin unrestricted coupled pair/coupled cluster methods
   Ingolf Harden          : AUTO-CI MPn and infrastructure 
   Benjamin Helmich-Paris : MC-RPA, TRAH-(SCF,CASSCF), AVAS, COSX integrals, SCF dyn. polar.
   Lee Huntington         : MR-EOM, pCC
   Robert Izsak           : Overlap fitted RIJCOSX, COSX-SCS-MP3, EOM
   Riya Kayal             : Wick's Theorem for AUTO-CI, AUTO-CI UHF-CCSDT
   Emily Kempfer          : AUTO-CI, RHF CISDT and CCSDT
   Christian Kollmar      : KDIIS, OOCD, Brueckner-CCSD(T), CCSD density, CASPT2, CASPT2-K, improved NEVPT2
   Axel Koslowski         : Symmetry handling
   Simone Kossmann        : Meta GGA functionals, TD-DFT gradient, OOMP2, (MP2 Hessian; deprecated post 5.0)
   Lucas Lang             : DCDCAS
   Marvin Lechner         : AUTO-CI (C++ implementation), FIC-MRCC
   Spencer Leger          : CASSCF response
   Dagmar Lenk            : GEPOL surface, SMD, ORCA-2-JSON
   Dimitrios Liakos       : Extrapolation schemes; Compound Job, initial MDCI parallelization
   Dimitrios Manganas     : Further ROCIS development; embedding schemes. LFT, Crystal Embedding
   Dimitrios Pantazis     : SARC Basis sets
   Anastasios Papadopoulos: AUTO-CI, single reference methods and gradients
   Taras Petrenko         : pre 6.0 DFT Hessian and TD-DFT gradient, (ASA, deprecated), ECA, 1-Electron XAS/XES, NRVS
   Peter Pinski           : DLPNO-MP2, DLPNO-MP2 Gradient
   Christoph Reimann      : Effective Core Potentials
   Marius Retegan         : Local ZFS, SOC
   Christoph Riplinger    : Optimizer, TS searches, QM/MM, DLPNO-CCSD(T), (RO)-DLPNO pert. Triples
   Michael Roemelt        : Original ROCIS implementation
   Masaaki Saitow         : Open-shell DLPNO-CCSD energy and density
   Barbara Sandhoefer     : DKH picture change effects
   Kantharuban Sivalingam : CASSCF convergence/infrastructure, NEVPT2 and variants, FIC-MRCI
   Bernardo de Souza      : ESD, SOC TD-DFT
   Georgi Stoychev        : AutoAux, RI-MP2 NMR, DLPNO-MP2 response, X2C
   Van Anh Tran           : RI-MP2 g-tensors
   Willem Van den Heuvel  : Paramagnetic NMR
   Zikuan Wang            : NOTCH, Electric field optimization 
   Frank Wennmohs         : Technical directorship and infrastructure
   Hang Xu                : AUTO-CI-Response properties 


 We gratefully acknowledge several colleagues who have allowed us to
 interface, adapt or use parts of their codes:
   Stefan Grimme, W. Hujo, H. Kruse, P. Pracht,  : VdW corrections, initial TS optimization,
                  C. Bannwarth, S. Ehlert,         DFT functionals, gCP, sTDA/sTD-DF
                  L. Wittmann, M. Mueller
   Ed Valeev, F. Pavosevic, A. Kumar             : LibInt (2-el integral package), F12 methods
   Garnet Chan, S. Sharma, J. Yang, R. Olivares  : DMRG
   Ulf Ekstrom                                   : XCFun DFT Library
   Mihaly Kallay                                 : mrcc  (arbitrary order and MRCC methods)
   Frank Weinhold                                : gennbo (NPA and NBO analysis)
   Simon Mueller                                 : openCOSMO-RS
   Christopher J. Cramer and Donald G. Truhlar   : smd solvation model
   Lars Goerigk                                  : TD-DFT with DH, B97 family of functionals
   V. Asgeirsson, H. Jonsson                     : NEB implementation
   FAccTs GmbH                                   : IRC, NEB, NEB-TS, DLPNO-Multilevel, CI-OPT
                                                   MM, QMMM, 2- and 3-layer-ONIOM, Crystal-QMMM,
                                                   LR-CPCM, SF, NACMEs, symmetry and pop. for TD-DFT,
                                                   nearIR, NL-DFT gradient (VV10), updates on ESD,
                                                   ML-optimized integration grids, MBIS, APM,
                                                   GOAT, DOCKER, SOLVATOR, interface openCOSMO-RS
   S Lehtola, MJT Oliveira, MAL Marques          : LibXC Library
   Liviu Ungur et al                             : ANISO software


 Your calculation uses the libint2 library for the computation of 2-el integrals
 For citations please refer to: http://libint.valeyev.net

 Your ORCA version has been built with support for libXC version: 6.2.2
 For citations please refer to: https://libxc.gitlab.io

 This ORCA versions uses:
   CBLAS   interface :  Fast vector & matrix operations
   LAPACKE interface :  Fast linear algebra routines
   SCALAPACK package :  Parallel linear algebra routines
   Shared memory     :  Shared parallel matrices
   BLAS/LAPACK       :  OpenBLAS 0.3.27  USE64BITINT DYNAMIC_ARCH NO_AFFINITY Haswell SINGLE_THREADED
        Core in use  :  Haswell
   Copyright (c) 2011-2014, The OpenBLAS Project


Warning: RI is on but no J-basis has been assigned. Assigning Def2/J (nothing to worry about!)
================================================================================

----- Orbital basis set information -----
Your calculation utilizes the basis: 6-31G**
   H-He, Li-Ne : W. J. Hehre, R. Ditchfield and J.A. Pople, J. Chem. Phys. 56, 2257 (1972).
                 Note: He and Ne are unpublished basis sets taken from the Gaussian program.
                 Note: Li and B from J. D. Dill and J. A. Pople, J. Chem. Phys. 62, 2921 (1975).
   Na - Ar     : M. M. Francl, W. J. Pietro, W. J. Hehre, J. S. Binkley, M. S. Gordon, 
                 D. J. DeFrees and J. A. Pople, J. Chem. Phys. 77, 3654 (1982).
   K - Zn      : V. A. Rassolov, J. A. Pople, M. A. Ratner, and T. L. Windus, J. Chem. Phys. 109, 1223 (1998).

----- AuxJ basis set information -----
Your calculation utilizes the auxiliary basis: def2/J
   F. Weigend, Phys. Chem. Chem. Phys. 8, 1057 (2006).

================================================================================
                                        WARNINGS
                       Please study these warnings very carefully!
================================================================================

INFO   : Checking CIS options ...

INFO   : Since TDDFT/CIS Mode == RPA_AOINTS, the TAMMDANCOFF/TDA keyword is ignored. 


WARNING: CIS/ROCIS methods need fully converged wavefunctions
  ===> : Setting SCFConvForced true
         You can overwrite this default with %scf ConvForced false 


================================================================================
                                       INPUT FILE
================================================================================
NAME = 2fluorocyclohexanone_3.inp
|  1> !PAL8
|  2> !PBE0 6-31G** printbasis printmos
|  3> %tddft
|  4> tda false
|  5> nroots=25
|  6> end
|  7> *xyz 0 1
|  8> C       0.717100    1.417400   -0.299700
|  9> C       1.802500    0.596500    0.382900
| 10> C       1.782600   -0.870000   -0.052900
| 11> C       0.381300   -1.390700   -0.374600
| 12> C      -0.708300   -0.634200    0.369500
| 13> C      -0.653300    0.843100    0.003400
| 14> O      -1.667200    1.548100   -0.063300
| 15> F      -1.915000   -1.191800    0.039600
| 16> H       0.858200    1.419700   -1.385600
| 17> H       0.752100    2.449600    0.063800
| 18> H       1.657400    0.643700    1.470100
| 19> H       2.789200    1.028000    0.180500
| 20> H       2.419200   -1.003500   -0.935800
| 21> H       2.231000   -1.478400    0.741900
| 22> H       0.202800   -1.298200   -1.454100
| 23> H       0.317400   -2.462800   -0.156200
| 24> H      -0.587000   -0.729500    1.453400
| 25> *
| 26> 
| 27>                          ****END OF INPUT****
================================================================================

                       ****************************
                       * Single Point Calculation *
                       ****************************

---------------------------------
CARTESIAN COORDINATES (ANGSTROEM)
---------------------------------
  C      0.717100    1.417400   -0.299700
  C      1.802500    0.596500    0.382900
  C      1.782600   -0.870000   -0.052900
  C      0.381300   -1.390700   -0.374600
  C     -0.708300   -0.634200    0.369500
  C     -0.653300    0.843100    0.003400
  O     -1.667200    1.548100   -0.063300
  F     -1.915000   -1.191800    0.039600
  H      0.858200    1.419700   -1.385600
  H      0.752100    2.449600    0.063800
  H      1.657400    0.643700    1.470100
  H      2.789200    1.028000    0.180500
  H      2.419200   -1.003500   -0.935800
  H      2.231000   -1.478400    0.741900
  H      0.202800   -1.298200   -1.454100
  H      0.317400   -2.462800   -0.156200
  H     -0.587000   -0.729500    1.453400

----------------------------
CARTESIAN COORDINATES (A.U.)
----------------------------
  NO LB      ZA    FRAG     MASS         X           Y           Z
   0 C     6.0000    0    12.011    1.355123    2.678498   -0.566351
   1 C     6.0000    0    12.011    3.406231    1.127222    0.723576
   2 C     6.0000    0    12.011    3.368626   -1.644062   -0.099967
   3 C     6.0000    0    12.011    0.720553   -2.628042   -0.707891
   4 C     6.0000    0    12.011   -1.338493   -1.198464    0.698254
   5 C     6.0000    0    12.011   -1.234558    1.593228    0.006425
   6 O     8.0000    0    15.999   -3.150551    2.925485   -0.119620
   7 F     9.0000    0    18.998   -3.618826   -2.252176    0.074833
   8 H     1.0000    0     1.008    1.621763    2.682844   -2.618405
   9 H     1.0000    0     1.008    1.421263    4.629073    0.120565
  10 H     1.0000    0     1.008    3.132032    1.216417    2.778086
  11 H     1.0000    0     1.008    5.270824    1.942638    0.341096
  12 H     1.0000    0     1.008    4.571625   -1.896340   -1.768406
  13 H     1.0000    0     1.008    4.215979   -2.793771    1.401988
  14 H     1.0000    0     1.008    0.383236   -2.453242   -2.747851
  15 H     1.0000    0     1.008    0.599799   -4.654018   -0.295175
  16 H     1.0000    0     1.008   -1.109269   -1.378555    2.746528

--------------------------------
INTERNAL COORDINATES (ANGSTROEM)
--------------------------------
 C      0   0   0     0.000000000000     0.00000000     0.00000000
 C      1   0   0     1.522469287047     0.00000000     0.00000000
 C      2   1   0     1.530013039160   112.32310289     0.00000000
 C      3   2   1     1.529137361390   113.46731564   327.45525633
 C      4   3   2     1.520922489807   112.59505154   333.78741164
 C      1   2   3     1.516471648268   110.51433153    58.63725434
 O      6   1   2     1.236716256867   120.94386858   156.35229803
 F      5   4   3     1.369626467326   108.11008764   181.35515270
 H      1   2   3     1.095031191337   110.72488935   298.52623678
 H      1   2   3     1.094894556567   109.67445281   178.38140622
 H      2   1   3     1.097855040522   109.06213761   239.35903667
 H      2   1   3     1.095780498093   110.29258732   122.66329660
 H      3   2   1     1.096628569754   109.78271687    89.33984028
 H      3   2   1     1.096777169711   108.66057956   205.05777880
 H      4   3   2     1.098061359852   109.09332839    94.70677226
 H      4   3   2     1.095983658637   110.15766520   210.18136669
 H      5   4   3     1.094821898758   111.20412605   299.14058320

---------------------------
INTERNAL COORDINATES (A.U.)
---------------------------
 C      0   0   0     0.000000000000     0.00000000     0.00000000
 C      1   0   0     2.877049999824     0.00000000     0.00000000
 C      2   1   0     2.891305625341   112.32310289     0.00000000
 C      3   2   1     2.889650834175   113.46731564   327.45525633
 C      4   3   2     2.874126976656   112.59505154   333.78741164
 C      1   2   3     2.865716105082   110.51433153    58.63725434
 O      6   1   2     2.337055030848   120.94386858   156.35229803
 F      5   4   3     2.588218929016   108.11008764   181.35515270
 H      1   2   3     2.069309059728   110.72488935   298.52623678
 H      1   2   3     2.069050857433   109.67445281   178.38140622
 H      2   1   3     2.074645361332   109.06213761   239.35903667
 H      2   1   3     2.070725044287   110.29258732   122.66329660
 H      3   2   1     2.072327667468   109.78271687    89.33984028
 H      3   2   1     2.072608480692   108.66057956   205.05777880
 H      4   3   2     2.075035248361   109.09332839    94.70677226
 H      4   3   2     2.071108962078   110.15766520   210.18136669
 H      5   4   3     2.068913554072   111.20412605   299.14058320

---------------------
BASIS SET INFORMATION
---------------------
There are 4 groups of distinct atoms

 Group   1 Type C   : 10s4p1d contracted to 3s2p1d pattern {631/31/1}
 Group   2 Type O   : 10s4p1d contracted to 3s2p1d pattern {631/31/1}
 Group   3 Type F   : 10s4p1d contracted to 3s2p1d pattern {631/31/1}
 Group   4 Type H   : 4s1p contracted to 2s1p pattern {31/1}

Atom   0C    basis set group =>   1
Atom   1C    basis set group =>   1
Atom   2C    basis set group =>   1
Atom   3C    basis set group =>   1
Atom   4C    basis set group =>   1
Atom   5C    basis set group =>   1
Atom   6O    basis set group =>   2
Atom   7F    basis set group =>   3
Atom   8H    basis set group =>   4
Atom   9H    basis set group =>   4
Atom  10H    basis set group =>   4
Atom  11H    basis set group =>   4
Atom  12H    basis set group =>   4
Atom  13H    basis set group =>   4
Atom  14H    basis set group =>   4
Atom  15H    basis set group =>   4
Atom  16H    basis set group =>   4

-------------------------
BASIS SET IN INPUT FORMAT
-------------------------

 # Basis set for element : H 
 NewGTO H 
 S 3 
   1      18.7311370000      0.0334945995
   2       2.8253937000      0.2347269467
   3       0.6401217000      0.8137573184
 S 1 
   1       0.1612778000      1.0000000000
 P 1 
   1       1.1000000000      1.0000000000
  end;

 # Basis set for element : C 
 NewGTO C 
 S 6 
   1    3047.5249000000      0.0018347002
   2     457.3695100000      0.0140373012
   3     103.9486900000      0.0688426061
   4      29.2101550000      0.2321844206
   5       9.2866630000      0.4679413416
   6       3.1639270000      0.3623120322
 S 3 
   1       7.8682724000     -0.1193324086
   2       1.8812885000     -0.1608542116
   3       0.5442493000      1.1434564826
 P 3 
   1       7.8682724000      0.0689990956
   2       1.8812885000      0.3164239798
   3       0.5442493000      0.7443082524
 S 1 
   1       0.1687144000      1.0000000000
 P 1 
   1       0.1687144000      1.0000000000
 D 1 
   1       0.8000000000      1.0000000000
  end;

 # Basis set for element : O 
 NewGTO O 
 S 6 
   1    5484.6717000000      0.0018310998
   2     825.2349500000      0.0139500985
   3     188.0469600000      0.0684450927
   4      52.9645000000      0.2327142753
   5      16.8975700000      0.4701929501
   6       5.7996353000      0.3585208619
 S 3 
   1      15.5396160000     -0.1107775038
   2       3.5999336000     -0.1480263051
   3       1.0137618000      1.1307670390
 P 3 
   1      15.5396160000      0.0708742995
   2       3.5999336000      0.3397527978
   3       1.0137618000      0.7271585953
 S 1 
   1       0.2700058000      1.0000000000
 P 1 
   1       0.2700058000      1.0000000000
 D 1 
   1       0.8000000000      1.0000000000
  end;

 # Basis set for element : F 
 NewGTO F 
 S 6 
   1    7001.7130900000      0.0018196200
   2    1051.3660900000      0.0139160800
   3     239.2856900000      0.0684053199
   4      67.3974453000      0.2331857596
   5      21.5199573000      0.4712674391
   6       7.4031013000      0.3566185493
 S 3 
   1      20.8479528000     -0.1085069803
   2       4.8083083400     -0.1464516604
   3       1.3440698600      1.1286885835
 P 3 
   1      20.8479528000      0.0716287200
   2       4.8083083400      0.3459121001
   3       1.3440698600      0.7224699603
 S 1 
   1       0.3581513900      1.0000000000
 P 1 
   1       0.3581513900      1.0000000000
 D 1 
   1       0.8000000000      1.0000000000
  end;

---------------------------------
AUXILIARY/J BASIS SET INFORMATION
---------------------------------
There are 4 groups of distinct atoms

 Group   1 Type C   : 12s5p4d2f1g contracted to 6s4p3d1f1g pattern {711111/2111/211/2/1}
 Group   2 Type O   : 12s5p4d2f1g contracted to 6s4p3d1f1g pattern {711111/2111/211/2/1}
 Group   3 Type F   : 12s5p4d2f1g contracted to 6s4p3d1f1g pattern {711111/2111/211/2/1}
 Group   4 Type H   : 5s2p1d contracted to 3s1p1d pattern {311/2/1}

Atom   0C    basis set group =>   1
Atom   1C    basis set group =>   1
Atom   2C    basis set group =>   1
Atom   3C    basis set group =>   1
Atom   4C    basis set group =>   1
Atom   5C    basis set group =>   1
Atom   6O    basis set group =>   2
Atom   7F    basis set group =>   3
Atom   8H    basis set group =>   4
Atom   9H    basis set group =>   4
Atom  10H    basis set group =>   4
Atom  11H    basis set group =>   4
Atom  12H    basis set group =>   4
Atom  13H    basis set group =>   4
Atom  14H    basis set group =>   4
Atom  15H    basis set group =>   4
Atom  16H    basis set group =>   4

-------------------------------------
AUXILIARY/J BASIS SET IN INPUT FORMAT
-------------------------------------

 # Auxiliary/J basis set for element : H 
 NewAuxJGTO H 
 S 3 
   1      15.6752927000      0.1007184237
   2       3.6063578000      0.3404257499
   3       1.2080016000      0.6491996172
 S 1 
   1       0.4726794000      1.0000000000
 S 1 
   1       0.2018100000      1.0000000000
 P 2 
   1       2.0281365000      0.5596620919
   2       0.5358730000      0.5596620919
 D 1 
   1       2.2165124000      1.0000000000
  end;

 # Auxiliary/J basis set for element : C 
 NewAuxJGTO C 
 S 7 
   1    1861.0916331000      0.0134602335
   2     642.9939764000      0.0299160374
   3     235.1105725000      0.1008649584
   4      90.7028894000      0.2370970548
   5      36.7794552000      0.3924037254
   6      15.6046273000      0.3195862154
   7       6.8907294000      0.0530104441
 S 1 
   1       3.1478850000     -1.0000000000
 S 1 
   1       1.4777287000      1.0000000000
 S 1 
   1       0.7076466000      1.0000000000
 S 1 
   1       0.3430122000      1.0000000000
 S 1 
   1       0.1669453000      1.0000000000
 P 2 
   1      13.5472892000     -0.6769313712
   2       5.4669419000     -0.3779500978
 P 1 
   1       2.1751721000      1.0000000000
 P 1 
   1       0.8582194000      1.0000000000
 P 1 
   1       0.3376720000      1.0000000000
 D 2 
   1       5.9287253000     -0.3533329857
   2       1.9809209000     -0.7456525731
 D 1 
   1       0.8055417000     -1.0000000000
 D 1 
   1       0.3531244000     -1.0000000000
 F 2 
   1       1.6755626000      0.6311076882
   2       0.5997536000      0.4968166032
 G 1 
   1       1.0024600000     -1.0000000000
  end;

 # Auxiliary/J basis set for element : O 
 NewAuxJGTO O 
 S 7 
   1    2876.8216605000      0.0168151159
   2    1004.7443032000      0.0340137548
   3     369.7579954000      0.1194951309
   4     142.9442404000      0.2664627624
   5      57.8366425000      0.4202764046
   6      24.3864983000      0.2765077335
   7      10.6622662000      0.0057008815
 S 1 
   1       4.8070437000     -1.0000000000
 S 1 
   1       2.2210770000      1.0000000000
 S 1 
   1       1.0447795000      1.0000000000
 S 1 
   1       0.4968425000      1.0000000000
 S 1 
   1       0.2371384000      1.0000000000
 P 2 
   1      64.2613382000     -0.2731534179
   2      16.3006076000     -0.8168011598
 P 1 
   1       4.3550542000      1.0000000000
 P 1 
   1       1.2019554000      1.0000000000
 P 1 
   1       0.3354196000      1.0000000000
 D 2 
   1       9.2146611000     -0.4661230638
   2       2.8435251000     -0.6600908911
 D 1 
   1       0.9955759000     -1.0000000000
 D 1 
   1       0.3649441000     -1.0000000000
 F 2 
   1       2.6420115000      0.5931563945
   2       0.7345613000      0.5931563945
 G 1 
   1       1.3931000000     -1.0000000000
  end;

 # Auxiliary/J basis set for element : F 
 NewAuxJGTO F 
 S 7 
   1    3514.9201549000      0.0176189594
   2    1231.2458815000      0.0358663858
   3     454.1367336000      0.1239867649
   4     175.8376258000      0.2758620517
   5      71.2081775000      0.4252764982
   6      30.0316883000      0.2651963387
   7      13.1259023000     -0.0078514564
 S 1 
   1       5.9126861000     -1.0000000000
 S 1 
   1       2.7284431000      1.0000000000
 S 1 
   1       1.2813993000      1.0000000000
 S 1 
   1       0.6082793000      1.0000000000
 S 1 
   1       0.2897894000      1.0000000000
 P 2 
   1      49.3740409000     -0.8404235528
   2      13.4874956000     -0.2331250081
 P 1 
   1       3.9664900000      1.0000000000
 P 1 
   1       1.2226629000     -1.0000000000
 P 1 
   1       0.3830317000      1.0000000000
 D 2 
   1      29.9719140000     -0.2160273306
   2       6.7860915000     -0.8915140390
 D 1 
   1       1.8137313000     -1.0000000000
 D 1 
   1       0.5157840000     -1.0000000000
 F 2 
   1       2.8301877000      0.5762078303
   2       0.9155962000      0.5762078303
 G 1 
   1       1.6097500000     -1.0000000000
  end;



           ************************************************************
           *        Program running with 8 parallel MPI-processes     *
           *              working on a common directory               *
           ************************************************************
------------------------------------------------------------------------------
                             ORCA STARTUP CALCULATIONS
                           -- RI-GTO INTEGRALS CHOSEN --
------------------------------------------------------------------------------
------------------------------------------------------------------------------
                   ___                                                        
                  /   \      - P O W E R E D   B Y -                         
                 /     \                                                     
                 |  |  |   _    _      __       _____    __    __             
                 |  |  |  | |  | |    /  \     |  _  \  |  |  /  |          
                  \  \/   | |  | |   /    \    | | | |  |  | /  /          
                 / \  \   | |__| |  /  /\  \   | |_| |  |  |/  /          
                |  |  |   |  __  | /  /__\  \  |    /   |      \           
                |  |  |   | |  | | |   __   |  |    \   |  |\   \          
                \     /   | |  | | |  |  |  |  | |\  \  |  | \   \       
                 \___/    |_|  |_| |__|  |__|  |_| \__\ |__|  \__/        
                                                                              
                      - O R C A' S   B I G   F R I E N D -                    
                                      &                                       
                       - I N T E G R A L  F E E D E R -                       
                                                                              
 v1 FN, 2020, v2 2021, v3 2022-2024                                           
------------------------------------------------------------------------------


----------------------
SHARK INTEGRAL PACKAGE
----------------------

Number of atoms                             ...     17
Number of basis functions                   ...    157
Number of shells                            ...     75
Maximum angular momentum                    ...      2
Integral batch strategy                     ... SHARK/LIBINT Hybrid
RI-J (if used) integral strategy            ... SPLIT-RIJ (Revised 2003 algorithm where possible)
Printlevel                                  ...      1
Contraction scheme used                     ... SEGMENTED contraction
Prescreening option                         ... SCHWARTZ
   Thresh                                   ... 1.000e-10
   Tcut                                     ... 1.000e-11
   Tpresel                                  ... 1.000e-11 
Coulomb Range Separation                    ... NOT USED
Exchange Range Separation                   ... NOT USED
Multipole approximations                    ... NOT USED
Finite Nucleus Model                        ... NOT USED
CABS basis                                  ... NOT available
Auxiliary Coulomb fitting basis             ... AVAILABLE
   # of basis functions in Aux-J            ...    491
   # of shells in Aux-J                     ...    165
   Maximum angular momentum in Aux-J        ...      4
Auxiliary J/K fitting basis                 ... NOT available
Auxiliary Correlation fitting basis         ... NOT available
Auxiliary 'external' fitting basis          ... NOT available

Checking pre-screening integrals            ... done (  0.0 sec) Dimension = 75
Check shell pair data                       ... done (  0.0 sec)
Shell pair information
Shell pair cut-off parameter TPreSel        ...   1.0e-11
Total number of shell pairs                 ...      2850
Shell pairs after pre-screening             ...      2682
Total number of primitive shell pairs       ...     13890
Primitive shell pairs kept                  ...      9008
          la=0 lb=0:    844 shell pairs
          la=1 lb=0:    986 shell pairs
          la=1 lb=1:    304 shell pairs
          la=2 lb=0:    320 shell pairs
          la=2 lb=1:    192 shell pairs
          la=2 lb=2:     36 shell pairs

Calculating one electron integrals          ... done (  0.0 sec)
Calculating RI/J V-Matrix + Cholesky decomp.... done (  0.0 sec)
Calculating Nuclear repulsion               ... done (  0.0 sec) ENN=    391.724573162256 Eh

Diagonalization of the overlap matrix:
Smallest eigenvalue                        ... 2.434e-03
Time for diagonalization                   ...    0.001 sec
Threshold for overlap eigenvalues          ... 1.000e-07
Number of eigenvalues below threshold      ... 0
Time for construction of square roots      ...    0.000 sec
Total time needed                          ...    0.002 sec

-------------------
DFT GRID GENERATION
-------------------

General Integration Accuracy     IntAcc      ... 4.388
Radial Grid Type                 RadialGrid  ... OptM3 with GC (2021)
Angular Grid (max. ang.)         AngularGrid ... 4 (Lebedev-302)
Angular grid pruning method      GridPruning ... 4 (adaptive)
Weight generation scheme         WeightScheme... mBecke (2022)
Basis function cutoff            BFCut       ... 1.0000e-10
Integration weight cutoff        WCut        ... 1.0000e-14
Partially contracted basis set               ... off
Rotationally invariant grid construction     ... off
Angular grids for H and He will be reduced by one unit

Total number of grid points                  ...    76837
Total number of batches                      ...     1209
Average number of points per batch           ...       63
Average number of grid points per atom       ...     4520

--------------------
COSX GRID GENERATION
--------------------

GRIDX 1
-------
General Integration Accuracy     IntAcc      ... 3.816
Radial Grid Type                 RadialGrid  ... OptM3 with GC (2021)
Angular Grid (max. ang.)         AngularGrid ... 1 (Lebedev-50)
Angular grid pruning method      GridPruning ... 4 (adaptive)
Weight generation scheme         WeightScheme... mBecke (2022)
Basis function cutoff            BFCut       ... 1.0000e-10
Integration weight cutoff        WCut        ... 1.0000e-14
Partially contracted basis set               ... on
Rotationally invariant grid construction     ... off
Angular grids for H and He will be reduced by one unit

Total number of grid points                  ...     9823
Total number of batches                      ...       89
Average number of points per batch           ...      110
Average number of grid points per atom       ...      578
UseSFitting                                  ... on

GRIDX 2
-------
General Integration Accuracy     IntAcc      ... 4.020
Radial Grid Type                 RadialGrid  ... OptM3 with GC (2021)
Angular Grid (max. ang.)         AngularGrid ... 2 (Lebedev-110)
Angular grid pruning method      GridPruning ... 4 (adaptive)
Weight generation scheme         WeightScheme... mBecke (2022)
Basis function cutoff            BFCut       ... 1.0000e-10
Integration weight cutoff        WCut        ... 1.0000e-14
Partially contracted basis set               ... on
Rotationally invariant grid construction     ... off
Angular grids for H and He will be reduced by one unit

Total number of grid points                  ...    21127
Total number of batches                      ...      174
Average number of points per batch           ...      121
Average number of grid points per atom       ...     1243
UseSFitting                                  ... on

GRIDX 3
-------
General Integration Accuracy     IntAcc      ... 4.338
Radial Grid Type                 RadialGrid  ... OptM3 with GC (2021)
Angular Grid (max. ang.)         AngularGrid ... 3 (Lebedev-194)
Angular grid pruning method      GridPruning ... 4 (adaptive)
Weight generation scheme         WeightScheme... mBecke (2022)
Basis function cutoff            BFCut       ... 1.0000e-10
Integration weight cutoff        WCut        ... 1.0000e-14
Partially contracted basis set               ... on
Rotationally invariant grid construction     ... off
Angular grids for H and He will be reduced by one unit

Total number of grid points                  ...    46276
Total number of batches                      ...      370
Average number of points per batch           ...      125
Average number of grid points per atom       ...     2722
UseSFitting                                  ... on
Initializing property integral containers    ... done (  0.0 sec)

SHARK setup successfully completed in   0.4 seconds

Maximum memory used throughout the entire STARTUP-calculation: 21.7 MB


           ************************************************************
           *        Program running with 8 parallel MPI-processes     *
           *              working on a common directory               *
           ************************************************************
-------------------------------------------------------------------------------
                                 ORCA GUESS
                   Start orbitals & Density for SCF / CASSCF
-------------------------------------------------------------------------------

------------
SCF SETTINGS
------------
Hamiltonian:
 Density Functional     Method          .... DFT(GTOs)
 Exchange Functional    Exchange        .... PBE
   PBE kappa parameter   XKappa         ....  0.804000
   PBE mue parameter    XMuePBE         ....  0.219520
 Correlation Functional Correlation     .... PBE
   PBE beta parameter  CBetaPBE         ....  0.066725
 LDA part of GGA corr.  LDAOpt          .... PW91-LDA
 Gradients option       PostSCFGGA      .... off
 Hybrid DFT is turned on
   Fraction HF Exchange ScalHFX         ....  0.250000
   Scaling of DF-GGA-X  ScalDFX         ....  0.750000
   Scaling of DF-GGA-C  ScalDFC         ....  1.000000
   Scaling of DF-LDA-C  ScalLDAC        ....  1.000000
   Perturbative correction              ....  0.000000
   NL short-range parameter             ....  6.900000
 RI-approximation to the Coulomb term is turned on
   Number of AuxJ basis functions       .... 491
   RIJ-COSX (HFX calculated with COS-X)).... on


General Settings:
 Integral files         IntName         .... 2fluorocyclohexanone_3
 Hartree-Fock type      HFTyp           .... RHF
 Total Charge           Charge          ....    0
 Multiplicity           Mult            ....    1
 Number of Electrons    NEL             ....   62
 Basis Dimension        Dim             ....  157
 Nuclear Repulsion      ENuc            ....    391.7245731623 Eh

Convergence Acceleration:
 AO-DIIS                CNVDIIS         .... on
   Start iteration      DIISMaxIt       ....    12
   Startup error        DIISStart       ....  0.200000
   # of expansion vecs  DIISMaxEq       ....     5
   Bias factor          DIISBfac        ....   1.050
   Max. coefficient     DIISMaxC        ....  10.000
 MO-DIIS                CNVKDIIS        .... off
 Trust-Rad. Augm. Hess. CNVTRAH         .... auto
   Auto Start mean grad. ratio tolernc. ....  1.125000
   Auto Start start iteration           ....    50
   Auto Start num. interpolation iter.  ....    10
   Max. Number of Micro iterations      ....    24
   Max. Number of Macro iterations      .... Maxiter - #DIIS iter
   Number of Davidson start vectors     ....     2
   Converg. threshold    (grad. norm)   ....   5.000e-05
   Grad. Scal. Fac. for Micro threshold ....   0.100
   Minimum threshold for Micro iter.    ....   1.000e-02
   NR start threshold (gradient norm)   ....   1.000e-04
   Initial trust radius                 ....   0.400
   Minimum AH scaling param. (alpha)    ....   1.000
   Maximum AH scaling param. (alpha)    .... 1000.000
   Quad. conv. algorithm                .... NR
   White noise on init. David. guess    .... on
   Maximum white noise                  ....   0.010
   Pseudo random numbers                .... off
   Inactive MOs                         .... canonical
   Orbital update algorithm             .... Taylor
   Preconditioner                       .... Diag
   Full preconditioner red. dimension   ....   250
 SOSCF                  CNVSOSCF        .... on
   Start iteration      SOSCFMaxIt      ....   150
   Startup grad/error   SOSCFStart      ....  0.003300
   Hessian update       SOSCFHessUp     .... L-BFGS
 Level Shifting         CNVShift        .... on
   Level shift para.    LevelShift      ....    0.2500
   Turn off err/grad.   ShiftErr        ....    0.0010
 Zerner damping         CNVZerner       .... off
 Static damping         CNVDamp         .... on
   Fraction old density DampFac         ....    0.7000
   Max. Damping (<1)    DampMax         ....    0.9800
   Min. Damping (>=0)   DampMin         ....    0.0000
   Turn off err/grad.   DampErr         ....    0.1000

SCF Procedure:
 Maximum # iterations   MaxIter         ....   125
 SCF integral mode      SCFMode         .... Direct
   Integral package                     .... SHARK and LIBINT hybrid scheme
 Reset frequency        DirectResetFreq ....    20
 Integral Threshold     Thresh          ....  1.000e-10 Eh
 Primitive CutOff       TCut            ....  1.000e-11 Eh

Convergence Tolerance:
 Convergence Check Mode ConvCheckMode   .... Total+1el-Energy
 Convergence forced     ConvForced      .... 1
 Energy Change          TolE            ....  1.000e-06 Eh
 1-El. energy change                    ....  1.000e-03 Eh
 Orbital Gradient       TolG            ....  5.000e-05
 Orbital Rotation angle TolX            ....  5.000e-05
 DIIS Error             TolErr          ....  1.000e-06

------------------------------
INITIAL GUESS: MODEL POTENTIAL
------------------------------
Loading Hartree-Fock densities                     ... done
Calculating cut-offs                               ... done
Initializing the effective Hamiltonian             ... done
Setting up the integral package (SHARK)            ... done
Starting the Coulomb interaction                   ... done (   0.0 sec)
Making the grid                                    ... done (   0.1 sec)
Mapping shells                                     ... done
Starting the XC term evaluation                    ... done (   0.0 sec)
  promolecular density results
     # of electrons  =     61.996540840
     EX              =    -51.489335224
     EC              =     -2.077964599
     EX+EC           =    -53.567299824
Transforming the Hamiltonian                       ... done (   0.0 sec)
Diagonalizing the Hamiltonian                      ... done (   0.0 sec)
Back transforming the eigenvectors                 ... done (   0.0 sec)
Now organizing SCF variables                       ... done
                      ------------------
                      INITIAL GUESS DONE (   0.1 sec)
                      ------------------
             **** ENERGY FILE WAS UPDATED (2fluorocyclohexanone_3.en.tmp) ****
Finished Guess after   0.1 sec
Maximum memory used throughout the entire GUESS-calculation: 12.1 MB


           ************************************************************
           *        Program running with 8 parallel MPI-processes     *
           *              working on a common directory               *
           ************************************************************

-------------------------------------------------------------------------------------------
                                      ORCA LEAN-SCF
                              memory conserving SCF solver
-------------------------------------------------------------------------------------------

----------------------------------------D-I-I-S--------------------------------------------
Iteration    Energy (Eh)           Delta-E    RMSDP     MaxDP     DIISErr   Damp  Time(sec)
-------------------------------------------------------------------------------------------
               ***  Starting incremental Fock matrix formation  ***
    1    -408.4666993197131433     0.00e+00  2.90e-03  9.14e-02  2.36e-01  0.700   0.3
    2    -408.5588930733442794    -9.22e-02  1.99e-03  5.52e-02  9.62e-02  0.700   0.2
                               ***Turning on AO-DIIS***
    3    -408.5947127276618858    -3.58e-02  8.58e-04  1.36e-02  3.46e-02  0.700   0.2
    4    -408.6167149296489924    -2.20e-02  1.42e-03  2.37e-02  1.73e-02  0.000   0.1
    5    -408.6650354560763390    -4.83e-02  2.58e-04  4.46e-03  5.40e-03  0.000   0.1
                              *** Initializing SOSCF ***
---------------------------------------S-O-S-C-F--------------------------------------
Iteration    Energy (Eh)           Delta-E    RMSDP     MaxDP     MaxGrad    Time(sec)
--------------------------------------------------------------------------------------
    6    -408.6652689893784327    -2.34e-04  8.03e-05  1.34e-03  1.41e-03     0.2
               *** Restarting incremental Fock matrix formation ***
    7    -408.6653261782219033    -5.72e-05  5.60e-05  1.05e-03  2.16e-04     0.3
    8    -408.6653262907182125    -1.12e-07  2.04e-05  6.15e-04  2.82e-04     0.2
                 **** Energy Check signals convergence ****

               *****************************************************
               *                     SUCCESS                       *
               *           SCF CONVERGED AFTER   8 CYCLES          *
               *****************************************************

Recomputing exchange energy using gridx3       ... done (    0.408 sec)
Old exchange energy                            :    -13.165455629 Eh
New exchange energy                            :    -13.165468065 Eh
Exchange energy change after final integration :     -0.000012436 Eh
Total energy after final integration           :   -408.665338727 Eh
             **** ENERGY FILE WAS UPDATED (2fluorocyclohexanone_3.en.tmp) ****

----------------
TOTAL SCF ENERGY
----------------

Total Energy       :       -408.66533872702422 Eh          -11120.34921 eV

Components:
Nuclear Repulsion  :        391.72457316225621 Eh           10659.36755 eV
Electronic Energy  :       -800.38989945297442 Eh          -21779.71642 eV
One Electron Energy:      -1334.68614385844171 Eh          -36318.65638 eV
Two Electron Energy:        534.29624440546729 Eh           14538.93996 eV

Virial components:
Potential Energy   :       -815.03669799829686 Eh          -22178.27607 eV
Kinetic Energy     :        406.37135927127258 Eh           11057.92686 eV
Virial Ratio       :          2.00564503231691

DFT components:
N(Alpha)           :       31.000050015218 electrons
N(Beta)            :       31.000050015218 electrons
N(Total)           :       62.000100030436 electrons
E(X)               :      -39.359299441880 Eh       
E(C)               :       -2.084798875367 Eh       
E(XC)              :      -41.444098317247 Eh       

---------------
SCF CONVERGENCE
---------------

  Last Energy change         ...    1.1250e-07  Tolerance :   1.0000e-06
  Last MAX-Density change    ...    6.1476e-04  Tolerance :   1.0000e-05
  Last RMS-Density change    ...    2.0376e-05  Tolerance :   1.0000e-06
  Last DIIS Error            ...    1.4055e-03  Tolerance :   1.0000e-06
  Last Orbital Gradient      ...    2.8151e-04  Tolerance :   5.0000e-05
  Last Orbital Rotation      ...    1.5447e-04  Tolerance :   5.0000e-05


----------------
ORBITAL ENERGIES
----------------

  NO   OCC          E(Eh)            E(eV) 
   0   2.0000     -24.758293      -673.7074 
   1   2.0000     -19.215089      -522.8692 
   2   2.0000     -10.322559      -280.8911 
   3   2.0000     -10.315104      -280.6883 
   4   2.0000     -10.243116      -278.7294 
   5   2.0000     -10.242907      -278.7237 
   6   2.0000     -10.241327      -278.6807 
   7   2.0000     -10.240884      -278.6686 
   8   2.0000      -1.223830       -33.3021 
   9   2.0000      -1.057082       -28.7647 
  10   2.0000      -0.870746       -23.6942 
  11   2.0000      -0.784551       -21.3487 
  12   2.0000      -0.754512       -20.5313 
  13   2.0000      -0.665907       -18.1203 
  14   2.0000      -0.616098       -16.7649 
  15   2.0000      -0.562743       -15.3130 
  16   2.0000      -0.537501       -14.6261 
  17   2.0000      -0.502929       -13.6854 
  18   2.0000      -0.493550       -13.4302 
  19   2.0000      -0.466597       -12.6967 
  20   2.0000      -0.459125       -12.4934 
  21   2.0000      -0.443396       -12.0654 
  22   2.0000      -0.422119       -11.4864 
  23   2.0000      -0.410393       -11.1674 
  24   2.0000      -0.387837       -10.5536 
  25   2.0000      -0.377755       -10.2792 
  26   2.0000      -0.366251        -9.9662 
  27   2.0000      -0.354139        -9.6366 
  28   2.0000      -0.337254        -9.1772 
  29   2.0000      -0.325792        -8.8653 
  30   2.0000      -0.256040        -6.9672 
  31   0.0000      -0.023771        -0.6468 
  32   0.0000       0.073937         2.0119 
  33   0.0000       0.104551         2.8450 
  34   0.0000       0.125156         3.4057 
  35   0.0000       0.141199         3.8422 
  36   0.0000       0.149540         4.0692 
  37   0.0000       0.159357         4.3363 
  38   0.0000       0.168226         4.5777 
  39   0.0000       0.188761         5.1365 
  40   0.0000       0.193562         5.2671 
  41   0.0000       0.203518         5.5380 
*Only the first 10 virtual orbitals were printed.
------------------
MOLECULAR ORBITALS (RHF, ROHF)
------------------
                      0         1         2         3         4         5   
                 -24.75829 -19.21509 -10.32256 -10.31510 -10.24312 -10.24291
                   2.00000   2.00000   2.00000   2.00000   2.00000   2.00000
                  --------  --------  --------  --------  --------  --------
  0C   1s         0.000012  0.000021 -0.001323 -0.000115  0.566911 -0.818142
  0C   2s         0.000041  0.000376  0.000456 -0.000154  0.021155 -0.032326
  0C   1pz        0.000049 -0.000070  0.000220 -0.000163 -0.000302  0.000188
  0C   1px        0.000023  0.000025 -0.000332  0.000047 -0.000127 -0.000143
  0C   1py        0.000127  0.000003 -0.000286  0.000131  0.000166  0.000011
  0C   3s        -0.002126 -0.002419 -0.004506 -0.001625 -0.014199  0.036499
  0C   2pz       -0.001254  0.000395 -0.000620 -0.000247  0.000164  0.003074
  0C   2px        0.000727 -0.000778  0.001661 -0.001483  0.003825  0.000044
  0C   2py       -0.000541  0.002378  0.002423  0.002036  0.000271 -0.005365
  0C   1dz2      -0.000007 -0.000029 -0.000500 -0.000136  0.000462 -0.000291
  0C   1dxz       0.000017  0.000015 -0.000291 -0.000026 -0.000488 -0.000175
  0C   1dyz      -0.000001  0.000098 -0.000177  0.000070  0.000546 -0.000174
  0C   1dx2y2     0.000026  0.000392  0.000754  0.000080 -0.000583  0.000354
  0C   1dxy       0.000073 -0.000227  0.000370 -0.000042  0.000412  0.000251
  1C   1s        -0.000007  0.000073  0.000324 -0.000471  0.817379  0.565710
  1C   2s        -0.000186  0.000678  0.001315 -0.001556  0.030813  0.022464
  1C   1pz       -0.000054  0.000011  0.000057 -0.000045  0.000372  0.000122
  1C   1px        0.000200 -0.000253 -0.000467  0.000333  0.000096 -0.000157
  1C   1py        0.000137  0.000025  0.000131  0.000235  0.000038  0.000176
  1C   3s        -0.000908 -0.001251 -0.003712  0.005678 -0.023839 -0.027602
  1C   2pz        0.000758 -0.000889 -0.000329 -0.000811  0.000898  0.002333
  1C   2px       -0.001443  0.001740  0.003227 -0.002941  0.001073  0.005485
  1C   2py        0.000528  0.001204  0.001835 -0.001658  0.002876 -0.000704
  1C   1dz2       0.000004  0.000067  0.000090  0.000019  0.000391  0.000033
  1C   1dxz       0.000003  0.000017  0.000019  0.000045 -0.000590  0.000125
  1C   1dyz       0.000006 -0.000035 -0.000035  0.000051  0.000106 -0.000345
  1C   1dx2y2     0.000019 -0.000010 -0.000082 -0.000028  0.000408  0.000332
  1C   1dxy      -0.000070  0.000029 -0.000059 -0.000038  0.000699 -0.000196
  2C   1s        -0.000057 -0.000062 -0.000165 -0.000186  0.036818  0.039956
  2C   2s        -0.000521 -0.000441 -0.000765 -0.000490  0.000053  0.001256
  2C   1pz       -0.000109 -0.000020 -0.000004 -0.000170  0.000046 -0.000134
  2C   1px        0.000024 -0.000035 -0.000059  0.000292  0.000027 -0.000163
  2C   1py       -0.000107  0.000052  0.000022 -0.000063 -0.000391  0.000077
  2C   3s         0.001527  0.002745  0.005169 -0.001868  0.007437  0.006282
  2C   2pz        0.000618  0.000314  0.000202  0.000683  0.000061  0.001127
  2C   2px       -0.000483 -0.001218 -0.002621 -0.000227 -0.000342 -0.001644
  2C   2py        0.001351  0.000637  0.001927 -0.001975  0.004183  0.001753
  2C   1dz2      -0.000082  0.000021 -0.000008 -0.000050  0.000257  0.000234
  2C   1dxz       0.000035  0.000025  0.000029 -0.000029 -0.000037 -0.000076
  2C   1dyz      -0.000008  0.000044  0.000059  0.000017 -0.000380 -0.000239
  2C   1dx2y2     0.000067  0.000031  0.000078  0.000085  0.000515  0.000411
  2C   1dxy       0.000023 -0.000101 -0.000193  0.000022 -0.000154 -0.000052
  3C   1s         0.000084  0.000068  0.000328  0.001310 -0.004287  0.008415
  3C   2s         0.000472  0.000595  0.001439 -0.000997 -0.000673  0.001348
  3C   1pz       -0.000119  0.000012 -0.000063 -0.000071 -0.000076 -0.000123
  3C   1px        0.000228 -0.000101 -0.000280  0.000221 -0.000149  0.000031
  3C   1py        0.000053  0.000155  0.000389 -0.000080 -0.000275  0.000184
  3C   3s        -0.003908 -0.001284 -0.004615  0.009728 -0.000620 -0.005886
  3C   2pz        0.000111  0.000640  0.000243  0.001482 -0.000299 -0.000875
  3C   2px        0.002367 -0.000514 -0.000077 -0.003660  0.000276 -0.000299
  3C   2py       -0.001794 -0.001432 -0.003979  0.003310 -0.000104 -0.003078
  3C   1dz2       0.000141  0.000082  0.000100  0.000149 -0.000045 -0.000042
  3C   1dxz       0.000053 -0.000039 -0.000032  0.000488  0.000014 -0.000039
  3C   1dyz       0.000043  0.000025  0.000009 -0.000248  0.000010 -0.000063
  3C   1dx2y2    -0.000274 -0.000002  0.000102 -0.000307 -0.000049 -0.000116
  3C   1dxy       0.000134  0.000009  0.000020  0.000386 -0.000034  0.000004
  4C   1s        -0.000292  0.000016 -0.013306  0.995427  0.000204 -0.000014
  4C   2s        -0.001257  0.000339 -0.000168  0.038278 -0.001482 -0.000804
  4C   1pz       -0.000089  0.000018 -0.000240 -0.000086  0.000017 -0.000117
  4C   1px       -0.001044 -0.000005  0.000072 -0.001196 -0.000233 -0.000095
  4C   1py       -0.000561 -0.000002  0.000369 -0.000563 -0.000240 -0.000018
  4C   3s         0.014042 -0.002739 -0.003644 -0.034768  0.004615  0.004604
  4C   2pz       -0.004387  0.000050  0.000225  0.003490  0.000007 -0.000718
  4C   2px       -0.005150 -0.002526 -0.000968 -0.005206  0.000701  0.003090
  4C   2py       -0.001384 -0.000573 -0.002693 -0.004378  0.001741  0.000539
  4C   1dz2      -0.000516  0.000001 -0.000496  0.000247 -0.000076  0.000070
  4C   1dxz       0.000337  0.000080 -0.000073  0.000550  0.000011 -0.000061
  4C   1dyz       0.000192  0.000003 -0.000396  0.000091 -0.000025 -0.000012
  4C   1dx2y2     0.000514 -0.000128 -0.000759  0.000661 -0.000017 -0.000030
  4C   1dxy       0.000558 -0.000424 -0.000211  0.000789 -0.000099  0.000030
  5C   1s         0.000055 -0.000267 -0.995243 -0.013281 -0.000626  0.001171
  5C   2s         0.000153 -0.001156 -0.036047 -0.001504 -0.001132  0.000548
  5C   1pz       -0.000016 -0.000009  0.000087 -0.000050  0.000019 -0.000064
  5C   1px        0.000025 -0.000133  0.001130  0.000255 -0.000350  0.000157
  5C   1py        0.000138  0.000028 -0.000766  0.000356 -0.000166  0.000287
  5C   3s        -0.003011 -0.008214  0.015778  0.011209  0.003796 -0.010594
  5C   2pz        0.000466  0.000642  0.000535  0.001125 -0.000903  0.000735
  5C   2px        0.002951  0.010810  0.010072 -0.000757  0.004683 -0.004778
  5C   2py        0.003081 -0.007624 -0.007068 -0.007307  0.002739 -0.001853
  5C   1dz2       0.000183 -0.000109  0.001125  0.000143  0.000138 -0.000168
  5C   1dxz       0.000033  0.000051 -0.000100  0.000064  0.000235 -0.000176
  5C   1dyz      -0.000068  0.000027  0.000210  0.000330  0.000026 -0.000104
  5C   1dx2y2     0.000121  0.000161 -0.000545  0.000666 -0.000198  0.000428
  5C   1dxy      -0.000188 -0.000478  0.001452 -0.000170 -0.000322  0.000510
  6O   1s        -0.000006 -0.995289 -0.000039  0.000003 -0.000019 -0.000011
  6O   2s        -0.000080 -0.029516 -0.001486 -0.000232 -0.000446  0.000008
  6O   1pz        0.000064 -0.000120  0.000031 -0.000023  0.000042  0.000008
  6O   1px        0.000025 -0.001742  0.000765 -0.000082 -0.000054  0.000096
  6O   1py        0.000028  0.001206 -0.000546  0.000092  0.000072 -0.000044
  6O   3s         0.001014  0.023815  0.010352 -0.000020  0.001312  0.000758
  6O   2pz       -0.000243  0.000425  0.000382 -0.000081  0.000031 -0.000091
  6O   2px       -0.000090  0.005982  0.004616  0.000382 -0.000059  0.000688
  6O   2py       -0.000637 -0.004139 -0.003158  0.000810 -0.000871  0.000249
  6O   1dz2       0.000084 -0.000179 -0.001081 -0.000151 -0.000106  0.000093
  6O   1dxz      -0.000026  0.000050  0.000133 -0.000037 -0.000016  0.000033
  6O   1dyz       0.000046 -0.000005 -0.000172 -0.000038 -0.000086  0.000070
  6O   1dx2y2    -0.000063  0.000143  0.000600  0.000165 -0.000135  0.000171
  6O   1dxy      -0.000080 -0.000397 -0.001579  0.000165 -0.000041 -0.000064
  7F   1s         0.995087 -0.000002 -0.000002  0.000051 -0.000005 -0.000005
  7F   2s         0.027719  0.000027  0.000147  0.000644 -0.000156 -0.000091
  7F   1pz        0.000357  0.000072  0.000006  0.000123 -0.000003 -0.000040
  7F   1px        0.001327  0.000005  0.000057  0.000066 -0.000006  0.000006
  7F   1py        0.000611 -0.000062  0.000026 -0.000022 -0.000030  0.000031
  7F   3s        -0.016655 -0.000432 -0.000373 -0.000385  0.000292  0.000475
  7F   2pz       -0.001061 -0.000271 -0.000020 -0.001197 -0.000002  0.000253
  7F   2px       -0.004644 -0.000002 -0.000051 -0.001954  0.000005 -0.000025
  7F   2py       -0.002183  0.000305  0.000115 -0.000621  0.000060 -0.000100
  7F   1dz2       0.000387 -0.000105  0.000006  0.000856 -0.000042  0.000061
  7F   1dxz      -0.000337  0.000015 -0.000021 -0.000897  0.000017  0.000021
  7F   1dyz      -0.000149 -0.000033  0.000109 -0.000413 -0.000023  0.000031
  7F   1dx2y2    -0.000592 -0.000016  0.000140 -0.001090 -0.000030  0.000021
  7F   1dxy      -0.000714  0.000049  0.000054 -0.001200 -0.000025 -0.000009
  8H   1s        -0.000115  0.000063  0.000363  0.000228 -0.000775  0.000145
  8H   2s        -0.000293  0.000866 -0.000733 -0.000138  0.002806 -0.003544
  8H   1pz        0.000005  0.000079  0.000043  0.000038 -0.000844  0.001135
  8H   1px       -0.000023  0.000006  0.000168  0.000074  0.000125 -0.000100
  8H   1py        0.000042 -0.000098 -0.000009 -0.000054 -0.000141  0.000199
  9H   1s         0.000232 -0.000027  0.000195 -0.000106 -0.000734  0.000332
  9H   2s         0.000356 -0.000505 -0.000696 -0.000219  0.002214 -0.003299
  9H   1pz        0.000010  0.000019  0.000012  0.000060  0.000382 -0.000526
  9H   1px        0.000029 -0.000090  0.000015 -0.000007 -0.000007  0.000002
  9H   1py       -0.000013 -0.000089 -0.000098 -0.000047  0.000830 -0.000996
 10H   1s        -0.000194  0.000226  0.000535 -0.000428 -0.000726  0.000203
 10H   2s        -0.000152  0.000642  0.000324 -0.000409  0.003925  0.002592
 10H   1pz        0.000001 -0.000031  0.000000  0.000062  0.001108  0.000727
 10H   1px        0.000060 -0.000080 -0.000174  0.000186 -0.000386 -0.000192
 10H   1py        0.000015 -0.000057 -0.000057  0.000114 -0.000017 -0.000076
 11H   1s         0.000182 -0.000126 -0.000113 -0.000025 -0.000903 -0.000206
 11H   2s         0.000785 -0.000980 -0.001554  0.001221  0.002937  0.002014
 11H   1pz       -0.000012  0.000000 -0.000013  0.000078 -0.000369 -0.000241
 11H   1px       -0.000036  0.000032  0.000028 -0.000070  0.001127  0.000631
 11H   1py       -0.000078  0.000024  0.000001 -0.000004  0.000446  0.000297
 12H   1s         0.000007 -0.000081 -0.000191  0.000126 -0.000572 -0.000329
 12H   2s         0.000270  0.000194  0.000450  0.000703 -0.000223  0.000845
 12H   1pz        0.000045  0.000012  0.000057  0.000016 -0.000066 -0.000086
 12H   1px        0.000014  0.000026  0.000074 -0.000060  0.000125  0.000053
 12H   1py       -0.000042 -0.000050 -0.000107  0.000075 -0.000068  0.000099
 13H   1s        -0.000093 -0.000132 -0.000170 -0.000042 -0.000350 -0.000375
 13H   2s        -0.000000 -0.000027  0.000426 -0.000739  0.000737 -0.000409
 13H   1pz       -0.000068 -0.000020 -0.000072 -0.000021  0.000089  0.000080
 13H   1px        0.000056  0.000082  0.000121  0.000103  0.000028  0.000117
 13H   1py       -0.000057 -0.000011 -0.000037  0.000028 -0.000044 -0.000086
 14H   1s         0.000289  0.000138  0.000592 -0.000641  0.000033  0.000379
 14H   2s         0.000307  0.000564  0.000291 -0.000029 -0.000386  0.000249
 14H   1pz       -0.000054  0.000028 -0.000006 -0.000034 -0.000003  0.000043
 14H   1px        0.000063  0.000023 -0.000016 -0.000066 -0.000049  0.000026
 14H   1py        0.000037  0.000066  0.000184  0.000030 -0.000077  0.000170
 15H   1s        -0.000009 -0.000037 -0.000078 -0.000365 -0.000024 -0.000016
 15H   2s        -0.000545 -0.000715 -0.001621  0.000107  0.000532 -0.000690
 15H   1pz       -0.000021 -0.000002  0.000012  0.000006  0.000022  0.000090
 15H   1px       -0.000017 -0.000002 -0.000008  0.000071  0.000008  0.000028
 15H   1py       -0.000081 -0.000022 -0.000026 -0.000119  0.000062 -0.000044
 16H   1s        -0.000255 -0.000004  0.000385 -0.000663 -0.000290 -0.000359
 16H   2s        -0.000047  0.000584 -0.000727  0.003871 -0.000705 -0.000076
 16H   1pz        0.000057 -0.000049 -0.000054  0.001289  0.000031  0.000040
 16H   1px        0.000448  0.000123  0.000029  0.000482 -0.000095 -0.000154
 16H   1py        0.000186  0.000010 -0.000163  0.000054 -0.000133 -0.000025
                      6         7         8         9        10        11   
                 -10.24133 -10.24088  -1.22383  -1.05708  -0.87075  -0.78455
                   2.00000   2.00000   2.00000   2.00000   2.00000   2.00000
                  --------  --------  --------  --------  --------  --------
  0C   1s        -0.013405  0.006488 -0.001214  0.021549 -0.085440 -0.118167
  0C   2s         0.000644 -0.000723  0.002394 -0.039575  0.156418  0.217996
  0C   1pz       -0.000048  0.000088  0.000039 -0.004737  0.020208  0.018676
  0C   1px        0.000251  0.000195 -0.001513  0.026067  0.009609  0.025861
  0C   1py       -0.000365  0.000232 -0.001726  0.005238 -0.045000 -0.010891
  0C   3s        -0.003043  0.003342  0.009825 -0.014221  0.121251  0.208290
  0C   2pz        0.000283 -0.000299  0.006276  0.000140  0.001614  0.006441
  0C   2px        0.000341 -0.000761 -0.003784  0.007773  0.002704  0.002055
  0C   2py        0.002763 -0.001744  0.004536 -0.008491 -0.009668 -0.005056
  0C   1dz2       0.000041 -0.000000 -0.000172  0.002419 -0.002088 -0.000484
  0C   1dxz      -0.000029 -0.000027 -0.000165  0.001262  0.001513  0.002360
  0C   1dyz      -0.000003 -0.000045 -0.000026  0.000363 -0.002946 -0.001710
  0C   1dx2y2     0.000030  0.000104  0.000240 -0.004586  0.000149  0.001945
  0C   1dxy      -0.000028 -0.000048 -0.000026 -0.001351 -0.000873 -0.002715
  1C   1s         0.052215  0.009894 -0.000433  0.004521 -0.099087 -0.094376
  1C   2s         0.002817  0.000695  0.001641 -0.011485  0.179265  0.173478
  1C   1pz       -0.000162  0.000089  0.000059  0.001545 -0.023612 -0.017220
  1C   1px       -0.000133  0.000031 -0.001555  0.006244 -0.035625 -0.027358
  1C   1py       -0.000229  0.000126 -0.000645 -0.001362 -0.021182  0.050303
  1C   3s        -0.008006 -0.005026  0.005629  0.000286  0.145866  0.155707
  1C   2pz        0.000673  0.000765 -0.003581  0.004133 -0.002331 -0.002195
  1C   2px       -0.000024  0.001321  0.007444 -0.009282 -0.011937 -0.008128
  1C   2py        0.003722  0.001581 -0.002641 -0.006629 -0.006655  0.005999
  1C   1dz2      -0.000287 -0.000150 -0.000035  0.000081 -0.003057 -0.000492
  1C   1dxz       0.000072 -0.000023  0.000052 -0.000488  0.002883  0.002864
  1C   1dyz       0.000341  0.000081 -0.000026  0.000416  0.000850 -0.003127
  1C   1dx2y2    -0.000611 -0.000055 -0.000103 -0.000034 -0.001834  0.002228
  1C   1dxy      -0.000093  0.000019  0.000198  0.000478 -0.001489 -0.004954
  2C   1s        -0.972239 -0.206595 -0.000766  0.002491 -0.098196  0.022532
  2C   2s        -0.036732 -0.009105  0.003099 -0.003297  0.180406 -0.043049
  2C   1pz        0.000046  0.000008  0.000445 -0.000005  0.003152  0.017757
  2C   1px       -0.000302  0.000210 -0.001691  0.002100 -0.039183  0.050620
  2C   1py        0.000142  0.000191  0.000282 -0.001780  0.027911  0.065872
  2C   3s         0.030881  0.017763  0.000041 -0.011967  0.129880 -0.031479
  2C   2pz        0.000165 -0.000020 -0.004644 -0.001831  0.000496  0.003221
  2C   2px       -0.002040 -0.005138 -0.000163  0.005621 -0.004216  0.005412
  2C   2py        0.002279  0.000143 -0.007798 -0.004335  0.005486  0.009479
  2C   1dz2      -0.000634  0.000240  0.000104  0.000190 -0.004324  0.000516
  2C   1dxz       0.000267 -0.000252  0.000078 -0.000134  0.001162 -0.001468
  2C   1dyz       0.000398 -0.000089  0.000090 -0.000265  0.002603  0.001171
  2C   1dx2y2     0.000037 -0.000455  0.000034 -0.000126 -0.000410 -0.007945
  2C   1dxy       0.000423 -0.000472  0.000179  0.000455  0.001177 -0.003221
  3C   1s        -0.206602  0.973726 -0.009863  0.002886 -0.094341  0.114462
  3C   2s        -0.006941  0.037618  0.015166 -0.008913  0.171193 -0.211848
  3C   1pz        0.000206 -0.000292  0.005535 -0.000876  0.022552 -0.020321
  3C   1px        0.000225 -0.000137 -0.014330  0.001171  0.013472  0.024237
  3C   1py        0.000184 -0.000007  0.004355 -0.004844  0.040884 -0.012004
  3C   3s        -0.000452 -0.036246  0.023003  0.005268  0.140380 -0.194401
  3C   2pz       -0.000310 -0.002103  0.000403 -0.003189  0.003384 -0.004493
  3C   2px       -0.003340 -0.001218 -0.019334 -0.001153  0.007227 -0.002305
  3C   2py       -0.000778 -0.004392  0.007600  0.010268  0.012538 -0.005514
  3C   1dz2      -0.000429  0.000227 -0.001460 -0.000164 -0.002896  0.000702
  3C   1dxz       0.000203  0.000197 -0.002228  0.000299 -0.000331  0.002448
  3C   1dyz       0.000230 -0.000337  0.000988 -0.000260  0.003037 -0.001999
  3C   1dx2y2     0.000700 -0.000493  0.002690  0.000088  0.002024 -0.002012
  3C   1dxy       0.000349  0.000098 -0.002312  0.000129  0.000564  0.002930
  4C   1s         0.000207 -0.001391 -0.063162  0.013879 -0.071265  0.087592
  4C   2s         0.000965 -0.000785  0.122165 -0.025862  0.136416 -0.171202
  4C   1pz       -0.000070  0.000163 -0.026570  0.003879 -0.018776  0.018996
  4C   1px        0.000318 -0.000117 -0.086217 -0.004951  0.066044 -0.057987
  4C   1py       -0.000220  0.000063 -0.038261 -0.032139  0.013835  0.026511
  4C   3s        -0.003879  0.007758 -0.011734 -0.011193  0.101050 -0.146242
  4C   2pz        0.000442 -0.001833  0.017787  0.002486 -0.001443  0.002914
  4C   2px       -0.002139  0.002723  0.015038  0.009533  0.020331 -0.023843
  4C   2py       -0.000258 -0.002835  0.003382 -0.001741  0.008064 -0.005415
  4C   1dz2      -0.000012  0.000170 -0.008254  0.001564 -0.000540 -0.001100
  4C   1dxz      -0.000129  0.000491  0.006808  0.000359 -0.004423  0.004234
  4C   1dyz       0.000081 -0.000391  0.003160  0.002181  0.000248 -0.002428
  4C   1dx2y2     0.000002 -0.000019  0.009716  0.005066 -0.001552  0.000818
  4C   1dxy      -0.000191  0.000494  0.011471  0.003250 -0.002280  0.006138
  5C   1s        -0.000015  0.000130 -0.012311  0.117455 -0.041691 -0.007956
  5C   2s        -0.000408 -0.000902  0.021164 -0.220086  0.081718  0.014596
  5C   1pz       -0.000025  0.000016  0.001757  0.009353  0.003690 -0.019967
  5C   1px       -0.000039 -0.000117 -0.009277  0.138808  0.092874  0.072948
  5C   1py       -0.000028  0.000240 -0.011958 -0.098266 -0.057173  0.073372
  5C   3s         0.003470 -0.000467  0.022701 -0.073024  0.050651  0.014377
  5C   2pz       -0.000066  0.000422 -0.002135 -0.003376  0.000357 -0.000704
  5C   2px        0.002427  0.000385 -0.011902 -0.042163  0.021693  0.006204
  5C   2py       -0.001013 -0.002319 -0.018721  0.027824 -0.010202  0.002482
  5C   1dz2      -0.000065 -0.000026 -0.002950  0.013508 -0.001863 -0.000486
  5C   1dxz      -0.000021 -0.000101 -0.000145 -0.001668 -0.001805 -0.001429
  5C   1dyz      -0.000075  0.000079 -0.000873  0.001837 -0.001915  0.000578
  5C   1dx2y2     0.000075 -0.000074 -0.002858 -0.008040 -0.001810  0.007421
  5C   1dxy      -0.000068 -0.000075  0.001153  0.020893  0.005814  0.005346
  6O   1s        -0.000002 -0.000020 -0.007930  0.192236  0.040350  0.009682
  6O   2s        -0.000065 -0.000323  0.016606 -0.418543 -0.092041 -0.022427
  6O   1pz        0.000005 -0.000054  0.000476 -0.008286 -0.001208 -0.004722
  6O   1px        0.000009 -0.000019  0.005055 -0.125665 -0.008482  0.012473
  6O   1py        0.000003 -0.000040 -0.006578  0.086309  0.008198  0.017953
  6O   3s         0.000650  0.001628  0.012117 -0.412049 -0.084419 -0.023925
  6O   2pz        0.000019  0.000123  0.001102 -0.003635  0.000007 -0.001941
  6O   2px       -0.000112  0.000566  0.002033 -0.052967  0.000209  0.005248
  6O   2py       -0.000039 -0.000002 -0.000541  0.035650  0.000396  0.007258
  6O   1dz2       0.000039 -0.000011 -0.000830  0.004093 -0.000254 -0.000358
  6O   1dxz       0.000005 -0.000020  0.000208 -0.001644 -0.000130 -0.000331
  6O   1dyz       0.000001 -0.000009 -0.000133 -0.000500 -0.000120  0.000326
  6O   1dx2y2    -0.000036  0.000057 -0.000307 -0.004247  0.000110  0.002659
  6O   1dxy       0.000049 -0.000011 -0.000422  0.011728  0.000290  0.001091
  7F   1s         0.000006  0.000013 -0.223487 -0.019632  0.028610 -0.038659
  7F   2s         0.000216  0.000076  0.474083  0.042721 -0.064059  0.087128
  7F   1pz       -0.000006  0.000025  0.021063  0.001258  0.001490 -0.007934
  7F   1px        0.000048 -0.000064  0.079457  0.001531  0.030863 -0.068974
  7F   1py       -0.000026 -0.000013  0.035843 -0.005667  0.008788 -0.018501
  7F   3s        -0.000629 -0.000824  0.526221  0.052028 -0.079228  0.115079
  7F   2pz       -0.000001 -0.000139  0.013690  0.001492  0.002045 -0.005316
  7F   2px       -0.000160 -0.000276  0.054591  0.002401  0.017162 -0.038205
  7F   2py        0.000100 -0.000047  0.024033 -0.003766  0.004727 -0.011033
  7F   1dz2      -0.000009 -0.000032 -0.005868  0.000519 -0.001258  0.002455
  7F   1dxz       0.000052 -0.000181  0.005132  0.000118  0.000628 -0.001329
  7F   1dyz      -0.000042  0.000145  0.002329  0.000073  0.000252 -0.000472
  7F   1dx2y2    -0.000009  0.000059  0.007828  0.000959  0.002019 -0.003429
  7F   1dxy       0.000061 -0.000150  0.009550 -0.000246  0.001435 -0.002260
  8H   1s         0.000381 -0.000280  0.000981 -0.007980  0.044271  0.070005
  8H   2s         0.000325 -0.000614  0.001703 -0.001583  0.004935  0.015700
  8H   1pz        0.000028 -0.000050  0.000068 -0.001194  0.004459  0.006512
  8H   1px        0.000036  0.000074  0.000045  0.000155 -0.000469 -0.000516
  8H   1py       -0.000187  0.000137 -0.000219  0.000123 -0.000739  0.000084
  9H   1s        -0.000037 -0.000022 -0.000684 -0.009286  0.037425  0.073635
  9H   2s        -0.001355  0.000692 -0.002594  0.000201  0.004876  0.016816
  9H   1pz        0.000027 -0.000030 -0.000036  0.000306 -0.001052 -0.002008
  9H   1px       -0.000020  0.000002 -0.000080  0.000772  0.000157  0.000167
  9H   1py        0.000032 -0.000047  0.000010  0.001482 -0.003981 -0.006565
 10H   1s         0.000367  0.000320  0.000984 -0.003329  0.050567  0.054667
 10H   2s         0.000142 -0.000224  0.000623 -0.002384  0.005615  0.011566
 10H   1pz        0.000027 -0.000012 -0.000041  0.000334 -0.005161 -0.005106
 10H   1px        0.000003 -0.000022 -0.000260  0.000357  0.000245  0.000593
 10H   1py        0.000068  0.000054 -0.000046  0.000189 -0.000454  0.000639
 11H   1s         0.000304  0.000045 -0.000606 -0.000724  0.045007  0.059019
 11H   2s         0.000106  0.000123 -0.004293  0.005996  0.008706  0.017771
 11H   1pz        0.000016 -0.000058  0.000020 -0.000040  0.000648  0.000778
 11H   1px       -0.000007 -0.000016  0.000100  0.000068 -0.004384 -0.005298
 11H   1py       -0.000005 -0.000038  0.000226  0.000021 -0.001937 -0.001595
 12H   1s         0.000773 -0.000281 -0.000090 -0.000587  0.047053 -0.011797
 12H   2s        -0.004321 -0.000683 -0.001964 -0.001555  0.007093 -0.001471
 12H   1pz        0.001200  0.000188 -0.000067 -0.000125  0.003857 -0.000595
 12H   1px       -0.000686 -0.000096 -0.000019  0.000008 -0.003207  0.001178
 12H   1py        0.000038 -0.000034  0.000145  0.000118  0.000904  0.000832
 13H   1s         0.000835 -0.000457  0.000492 -0.000362  0.046818 -0.015591
 13H   2s        -0.004121 -0.000871 -0.000158 -0.000438  0.007448 -0.005231
 13H   1pz       -0.001102 -0.000207  0.000193  0.000137 -0.003444  0.001228
 13H   1px       -0.000421 -0.000043 -0.000149 -0.000154 -0.002452  0.001386
 13H   1py        0.000739  0.000057  0.000226 -0.000002  0.002893 -0.000041
 14H   1s         0.000583 -0.000380  0.002205 -0.002691  0.047282 -0.065987
 14H   2s        -0.001185  0.004540 -0.000734 -0.002339  0.004948 -0.013433
 14H   1pz        0.000325 -0.001279  0.000772 -0.000218  0.004849 -0.006163
 14H   1px       -0.000011 -0.000218 -0.000088 -0.000048  0.000841 -0.000527
 14H   1py       -0.000107  0.000362 -0.000165 -0.000376  0.000056  0.000692
 15H   1s         0.000551 -0.000706  0.003102 -0.000270  0.042055 -0.069931
 15H   2s        -0.000848  0.003568  0.003585  0.005511  0.007264 -0.017346
 15H   1pz       -0.000103  0.000443 -0.000074  0.000035 -0.000685  0.001053
 15H   1px        0.000030 -0.000048 -0.000037  0.000029  0.000282 -0.000032
 15H   1py        0.000375 -0.001329  0.000926  0.000018  0.004524 -0.006483
 16H   1s         0.000371 -0.000475  0.019179 -0.005090  0.039598 -0.054242
 16H   2s        -0.000027  0.000211  0.001558 -0.000747  0.004100 -0.010811
 16H   1pz       -0.000007  0.000056 -0.004401  0.000608 -0.003701  0.004789
 16H   1px        0.000115  0.000085 -0.002457 -0.000271  0.000475  0.000058
 16H   1py        0.000010 -0.000004 -0.000514 -0.000124  0.000519  0.000108
                     12        13        14        15        16        17   
                  -0.75451  -0.66591  -0.61610  -0.56274  -0.53750  -0.50293
                   2.00000   2.00000   2.00000   2.00000   2.00000   2.00000
                  --------  --------  --------  --------  --------  --------
  0C   1s         0.069241  0.085750 -0.000571 -0.054108  0.010133  0.012092
  0C   2s        -0.130271 -0.162183  0.001904  0.106656 -0.018745 -0.020712
  0C   1pz       -0.000621  0.049429 -0.034395 -0.063964  0.119904  0.127990
  0C   1px        0.064271  0.058720 -0.138222  0.029381 -0.074815 -0.143276
  0C   1py        0.006296 -0.048681 -0.027791  0.123775 -0.006662  0.091522
  0C   3s        -0.122452 -0.188589  0.002499  0.140947 -0.041463 -0.024444
  0C   2pz        0.000878  0.013684 -0.012250 -0.020383  0.044658  0.069576
  0C   2px        0.007616  0.018217 -0.038855  0.007890 -0.031981 -0.054596
  0C   2py        0.004356 -0.004166 -0.011064  0.046896  0.008934  0.058907
  0C   1dz2       0.000407 -0.001233 -0.001847  0.004035 -0.002357 -0.004245
  0C   1dxz       0.002903  0.002784 -0.006234 -0.001650 -0.001475 -0.000274
  0C   1dyz       0.000032 -0.003951  0.000689  0.004883 -0.003243  0.001214
  0C   1dx2y2    -0.000903  0.000386  0.000587 -0.003140  0.000267  0.004373
  0C   1dxy      -0.006697 -0.003191  0.007839 -0.002548  0.002306  0.004464
  1C   1s        -0.058923 -0.083559  0.082481  0.042190 -0.000213 -0.005051
  1C   2s         0.108898  0.158178 -0.159544 -0.079840 -0.004965  0.012710
  1C   1pz        0.000490  0.046712 -0.041338 -0.051944  0.116384  0.178622
  1C   1px        0.048210  0.054421 -0.024639  0.005199 -0.074438  0.060178
  1C   1py       -0.077908 -0.042026 -0.114389  0.005098 -0.013019  0.012967
  1C   3s         0.105731  0.176954 -0.181449 -0.105269  0.013478  0.013206
  1C   2pz       -0.001873  0.012340 -0.013572 -0.023277  0.048423  0.073319
  1C   2px        0.007954  0.008084 -0.008647  0.012425 -0.054136  0.037193
  1C   2py       -0.015595 -0.013125 -0.038665  0.006446 -0.010967  0.006675
  1C   1dz2      -0.001034  0.000691 -0.003316 -0.002269  0.001165  0.001517
  1C   1dxz      -0.002318 -0.004126  0.001048  0.001042 -0.001480 -0.006440
  1C   1dyz       0.004272  0.001992  0.004386 -0.002198 -0.000561 -0.000413
  1C   1dx2y2    -0.007019 -0.000665 -0.004648 -0.004569  0.000676 -0.000044
  1C   1dxy       0.002381  0.003348 -0.001318 -0.004133 -0.000241 -0.002101
  2C   1s        -0.125194 -0.008891 -0.099228 -0.040982  0.010740 -0.002157
  2C   2s         0.231924  0.018383  0.190799  0.081239 -0.023517  0.004152
  2C   1pz        0.003812  0.057887 -0.019021  0.006640  0.101701  0.101577
  2C   1px        0.015718  0.066717  0.057162  0.064696 -0.081382  0.088737
  2C   1py        0.007765  0.088057 -0.057267 -0.071146 -0.038597 -0.096628
  2C   3s         0.222296  0.013272  0.214637  0.097963 -0.024847  0.019037
  2C   2pz        0.001844  0.017515 -0.006152  0.001866  0.048979  0.043046
  2C   2px       -0.000619  0.020704  0.016585  0.025033 -0.036214  0.034690
  2C   2py        0.000721  0.022621 -0.018286 -0.023517 -0.014414 -0.045620
  2C   1dz2      -0.000489  0.000721  0.004523  0.003163 -0.002277  0.004613
  2C   1dxz       0.000916 -0.002568 -0.001578 -0.002764  0.000826  0.002566
  2C   1dyz       0.001861  0.002166 -0.003634 -0.004424  0.000372 -0.000171
  2C   1dx2y2    -0.002113 -0.006832  0.002232  0.000215  0.001892 -0.001990
  2C   1dxy       0.002031 -0.002972 -0.004020 -0.000583  0.000316  0.001797
  3C   1s        -0.023090  0.093946  0.064716  0.032054 -0.011714 -0.003134
  3C   2s         0.042735 -0.177540 -0.125793 -0.060930  0.025158  0.009799
  3C   1pz       -0.013502  0.053744  0.004197  0.094906  0.125379 -0.008763
  3C   1px        0.098589 -0.027891  0.127246  0.026098  0.042692 -0.033463
  3C   1py       -0.021714  0.050068  0.051923 -0.049407 -0.030989 -0.136798
  3C   3s         0.038792 -0.192705 -0.143738 -0.073323  0.012564  0.001462
  3C   2pz       -0.000680  0.014618  0.001558  0.037832  0.051377 -0.003973
  3C   2px        0.015534 -0.004763  0.040658  0.010813  0.018155 -0.020685
  3C   2py       -0.006097  0.006841  0.020289 -0.025094 -0.021631 -0.076284
  3C   1dz2      -0.001652 -0.000642 -0.003552 -0.001473  0.001378 -0.001956
  3C   1dxz       0.005086 -0.002586  0.004243 -0.004257  0.000149  0.002678
  3C   1dyz      -0.001663  0.003596  0.000911  0.000302  0.003828 -0.004407
  3C   1dx2y2     0.004055  0.001219  0.003680  0.006025 -0.004864  0.001386
  3C   1dxy       0.007679 -0.002228  0.003000  0.001537  0.002732 -0.002404
  4C   1s         0.095389 -0.081750  0.015343 -0.044549  0.010070  0.017859
  4C   2s        -0.190198  0.167085 -0.031813  0.100171 -0.034850 -0.026648
  4C   1pz       -0.001011  0.075917  0.020060  0.185736  0.205715 -0.097007
  4C   1px       -0.016731 -0.054101 -0.029001 -0.097331  0.177292 -0.126405
  4C   1py       -0.069434  0.083232  0.172386 -0.164634 -0.010038 -0.056058
  4C   3s        -0.158540  0.163797 -0.026507  0.081898  0.015187 -0.079834
  4C   2pz       -0.005717  0.028911  0.004568  0.086118  0.078461 -0.042164
  4C   2px       -0.022820  0.011080 -0.017343 -0.006076  0.044580 -0.026833
  4C   2py       -0.020197  0.036149  0.047164 -0.053187 -0.019142 -0.025201
  4C   1dz2      -0.000568  0.000589 -0.002364  0.001785  0.005237 -0.006933
  4C   1dxz       0.000788  0.004163  0.001765  0.003288 -0.006720  0.006885
  4C   1dyz       0.002767 -0.003890 -0.007600  0.001953 -0.001458  0.004534
  4C   1dx2y2     0.006218 -0.001592 -0.003703  0.008019 -0.005775 -0.000482
  4C   1dxy      -0.001415  0.002457  0.002511  0.006332 -0.004963  0.004377
  5C   1s         0.078783 -0.007927 -0.083342  0.061409 -0.009896 -0.057299
  5C   2s        -0.158442  0.017369  0.174283 -0.127311  0.018531  0.127247
  5C   1pz       -0.012285  0.069063  0.001945  0.008134  0.072233 -0.011984
  5C   1px       -0.106283 -0.082346  0.071092 -0.009496  0.087081  0.002339
  5C   1py        0.091702 -0.132691 -0.052053  0.104454  0.086505  0.130901
  5C   3s        -0.123827  0.014552  0.157978 -0.122945  0.022719  0.123464
  5C   2pz       -0.002117  0.016341  0.001682  0.005144  0.038766  0.001060
  5C   2px       -0.033268 -0.013338  0.036223 -0.031642  0.043655  0.020265
  5C   2py        0.023017 -0.024294 -0.025701  0.039867  0.025084  0.015430
  5C   1dz2       0.002160  0.000160 -0.000307  0.001823  0.001500 -0.003009
  5C   1dxz       0.002696  0.002030 -0.002505 -0.002438  0.001487  0.001998
  5C   1dyz       0.003977 -0.002832 -0.003100 -0.003540 -0.002303  0.002302
  5C   1dx2y2     0.005202 -0.005301 -0.001437 -0.000835  0.001477 -0.002523
  5C   1dxy      -0.009350 -0.001754  0.005610  0.003793 -0.004855  0.005851
  6O   1s        -0.053481  0.002172  0.047759 -0.023326 -0.002149  0.054323
  6O   2s         0.123718 -0.005138 -0.112909  0.056993  0.003917 -0.125313
  6O   1pz       -0.001550  0.023669  0.002401  0.004356  0.041386  0.006398
  6O   1px       -0.009682 -0.028062  0.053494 -0.021411  0.032666  0.197231
  6O   1py        0.009078 -0.043858 -0.041068  0.066833  0.058227 -0.056426
  6O   3s         0.128771 -0.005275 -0.134068  0.058952  0.017229 -0.194274
  6O   2pz       -0.001260  0.010974  0.001288  0.002808  0.020673  0.003288
  6O   2px       -0.008747 -0.012505  0.028596 -0.013628  0.018876  0.105854
  6O   2py        0.006873 -0.021239 -0.024070  0.040711  0.028714 -0.026406
  6O   1dz2       0.001648  0.000041 -0.003217  0.001996  0.001034 -0.006276
  6O   1dxz      -0.000062  0.001913  0.000033  0.000282  0.003321  0.000761
  6O   1dyz       0.000589 -0.001792 -0.000629 -0.000431 -0.001866 -0.000398
  6O   1dx2y2    -0.000244 -0.005085  0.001058  0.002555  0.005513  0.008288
  6O   1dxy       0.001451 -0.002115 -0.003557  0.004291  0.002189 -0.005870
[...]
  0-1A  ->  6-1A    8.033832   64797.2   154.3   0.014894633   0.07567   0.13476  -0.22012   0.09521
  0-1A  ->  7-1A    8.337458   67246.1   148.7   0.006445795   0.03156  -0.00909   0.17101  -0.04721
  0-1A  ->  8-1A    8.571460   69133.5   144.6   0.010319124   0.04914   0.19107   0.01795  -0.11095
  0-1A  ->  9-1A    8.808695   71046.9   140.8   0.048345855   0.22402   0.44257  -0.15872  -0.05440
  0-1A  -> 10-1A    8.945464   72150.0   138.6   0.008063736   0.03679   0.00013  -0.16183   0.10297
  0-1A  -> 11-1A    9.037055   72888.8   137.2   0.031870836   0.14395  -0.25726   0.27884   0.00377
  0-1A  -> 12-1A    9.263940   74718.7   133.8   0.016353838   0.07206   0.21575  -0.12328   0.10153
  0-1A  -> 13-1A    9.570800   77193.7   129.5   0.002298924   0.00980   0.07335   0.00893  -0.06591
  0-1A  -> 14-1A    9.709913   78315.7   127.7   0.000933518   0.00392   0.01572  -0.00474   0.06045
  0-1A  -> 15-1A    9.820011   79203.7   126.3   0.002287276   0.00951   0.04726   0.08504  -0.00650
  0-1A  -> 16-1A    9.910322   79932.1   125.1   0.028312022   0.11661  -0.07075   0.33258  -0.03154
  0-1A  -> 17-1A   10.059421   81134.7   123.3   0.030244732   0.12272  -0.10674   0.33346  -0.01149
  0-1A  -> 18-1A   10.187771   82169.9   121.7   0.046571038   0.18659   0.38879   0.18453   0.03707
  0-1A  -> 19-1A   10.301690   83088.7   120.4   0.016431742   0.06511   0.23215  -0.00465  -0.10578
  0-1A  -> 20-1A   10.332730   83339.1   120.0   0.003378833   0.01335  -0.05093  -0.10135  -0.02197
  0-1A  -> 21-1A   10.402843   83904.6   119.2   0.008851814   0.03473  -0.04771   0.00953   0.17990
  0-1A  -> 22-1A   10.442446   84224.0   118.7   0.020492088   0.08010  -0.10477   0.26033   0.03677
  0-1A  -> 23-1A   10.607582   85555.9   116.9   0.044665029   0.17187  -0.29388  -0.29210  -0.01343
  0-1A  -> 24-1A   10.705047   86342.0   115.8   0.015309717   0.05837   0.14810  -0.19069   0.00884
  0-1A  -> 25-1A   10.717629   86443.5   115.7   0.012300067   0.04684   0.10519  -0.10523   0.15718

----------------------------------------------------------------------------------------------------
                     ABSORPTION SPECTRUM VIA TRANSITION VELOCITY DIPOLE MOMENTS    
----------------------------------------------------------------------------------------------------
     Transition      Energy     Energy  Wavelength fosc(P2)      P2        PX        PY        PZ   
                      (eV)      (cm-1)    (nm)                 (au**2)    (au)      (au)      (au)  
----------------------------------------------------------------------------------------------------
  0-1A  ->  1-1A    3.981913   32116.3   311.4   0.000020432   0.00000  -0.00178   0.00101  -0.00055
  0-1A  ->  2-1A    6.942302   55993.4   178.6   0.011689127   0.00447  -0.04882   0.04558   0.00354
  0-1A  ->  3-1A    7.128434   57494.7   173.9   0.008523436   0.00335   0.03525  -0.04544   0.00643
  0-1A  ->  4-1A    7.818307   63058.9   158.6   0.015529452   0.00669  -0.08098  -0.00617   0.00985
  0-1A  ->  5-1A    7.872211   63493.7   157.5   0.006023459   0.00261  -0.01660  -0.02102   0.04355
  0-1A  ->  6-1A    8.033832   64797.2   154.3   0.010117794   0.00448  -0.03401   0.05569  -0.01495
  0-1A  ->  7-1A    8.337458   67246.1   148.7   0.005854328   0.00269   0.00607  -0.05096   0.00753
  0-1A  ->  8-1A    8.571460   69133.5   144.6   0.009670664   0.00457  -0.05849  -0.00755   0.03303
  0-1A  ->  9-1A    8.808695   71046.9   140.8   0.045374288   0.02203  -0.13806   0.05040   0.02079
  0-1A  -> 10-1A    8.945464   72150.0   138.6   0.008491368   0.00419   0.00114   0.04864  -0.04266
  0-1A  -> 11-1A    9.037055   72888.8   137.2   0.029054038   0.01447   0.07578  -0.09326   0.00585
  0-1A  -> 12-1A    9.263940   74718.7   133.8   0.014605734   0.00746  -0.07015   0.03653  -0.03470
  0-1A  -> 13-1A    9.570800   77193.7   129.5   0.004084164   0.00215  -0.03833  -0.00156   0.02614
  0-1A  -> 14-1A    9.709913   78315.7   127.7   0.001042834   0.00056  -0.00127   0.00288  -0.02342
  0-1A  -> 15-1A    9.820011   79203.7   126.3   0.001643879   0.00089  -0.01935  -0.02267   0.00129
  0-1A  -> 16-1A    9.910322   79932.1   125.1   0.030584309   0.01671   0.03379  -0.12435   0.01014
  0-1A  -> 17-1A   10.059421   81134.7   123.3   0.030337208   0.01682   0.04162  -0.12277   0.00426
  0-1A  -> 18-1A   10.187771   82169.9   121.7   0.046946597   0.02636  -0.14582  -0.07142  -0.00109
  0-1A  -> 19-1A   10.301690   83088.7   120.4   0.017376544   0.00987  -0.08949  -0.00345   0.04298
  0-1A  -> 20-1A   10.332730   83339.1   120.0   0.004936052   0.00281   0.01696   0.04628   0.01954
  0-1A  -> 21-1A   10.402843   83904.6   119.2   0.007894748   0.00453   0.01190  -0.00506  -0.06603
  0-1A  -> 22-1A   10.442446   84224.0   118.7   0.016737266   0.00963   0.03305  -0.09216  -0.00695
  0-1A  -> 23-1A   10.607582   85555.9   116.9   0.045234816   0.02645   0.11613   0.11362   0.00740
  0-1A  -> 24-1A   10.705047   86342.0   115.8   0.016561929   0.00977  -0.05987   0.07800  -0.01024
  0-1A  -> 25-1A   10.717629   86443.5   115.7   0.012728918   0.00752  -0.05105   0.04640  -0.05255

------------------------------------------------------------------------------------------
                     CD SPECTRUM VIA TRANSITION ELECTRIC DIPOLE MOMENTS    
------------------------------------------------------------------------------------------
     Transition      Energy     Energy  Wavelength    R        MX        MY        MZ   
                      (eV)      (cm-1)    (nm)   (1e40*cgs)   (au)      (au)      (au)  
------------------------------------------------------------------------------------------
  0-1A  ->  1-1A    3.981913   32116.3   311.4    7.07012  -0.45512   0.31346  -0.02904
  0-1A  ->  2-1A    6.942302   55993.4   178.6    5.41303  -0.17888  -0.11137  -0.10692
  0-1A  ->  3-1A    7.128434   57494.7   173.9   14.31710   0.05622  -0.13788  -0.01633
  0-1A  ->  4-1A    7.818307   63058.9   158.6   -0.61923   0.02196   0.02543   0.09155
  0-1A  ->  5-1A    7.872211   63493.7   157.5    2.06797   0.04291   0.11056   0.14418
  0-1A  ->  6-1A    8.033832   64797.2   154.3    4.74158   0.09126   0.09682  -0.01097
  0-1A  ->  7-1A    8.337458   67246.1   148.7   11.86255  -0.07832  -0.13345   0.06467
  0-1A  ->  8-1A    8.571460   69133.5   144.6   -3.80785   0.17153  -0.02509   0.21853
  0-1A  ->  9-1A    8.808695   71046.9   140.8  -21.22670   0.14648   0.08157   0.12609
  0-1A  -> 10-1A    8.945464   72150.0   138.6  -46.13939  -0.22916  -0.47758   0.20014
  0-1A  -> 11-1A    9.037055   72888.8   137.2   11.59529   0.04908  -0.04526   0.17292
  0-1A  -> 12-1A    9.263940   74718.7   133.8   12.08203  -0.22437  -0.20774  -0.02786
  0-1A  -> 13-1A    9.570800   77193.7   129.5   -2.13404  -0.06415   0.07364  -0.13008
  0-1A  -> 14-1A    9.709913   78315.7   127.7   -2.00685   0.08753  -0.14794   0.03605
  0-1A  -> 15-1A    9.820011   79203.7   126.3   -3.96067  -0.03123   0.12725   0.14535
  0-1A  -> 16-1A    9.910322   79932.1   125.1    3.32449  -0.09326  -0.03909   0.02059
  0-1A  -> 17-1A   10.059421   81134.7   123.3  -15.65865  -0.25005   0.02961   0.29154
  0-1A  -> 18-1A   10.187771   82169.9   121.7  -16.63675   0.05110   0.06246   0.10506
  0-1A  -> 19-1A   10.301690   83088.7   120.4  -22.30307   0.19748  -0.01804  -0.01303
  0-1A  -> 20-1A   10.332730   83339.1   120.0   -8.71074  -0.08975  -0.12251  -0.06781
  0-1A  -> 21-1A   10.402843   83904.6   119.2   -5.61701  -0.03423  -0.02141   0.05828
  0-1A  -> 22-1A   10.442446   84224.0   118.7   24.66201   0.20840  -0.13303   0.11305
  0-1A  -> 23-1A   10.607582   85555.9   116.9   38.86437   0.11096   0.18602  -0.33585
  0-1A  -> 24-1A   10.705047   86342.0   115.8  -27.62089   0.02391  -0.29604  -0.15904
  0-1A  -> 25-1A   10.717629   86443.5   115.7  -28.26873   0.30781   0.06079   0.21619

------------------------------------------------------------------------------------------
                     CD SPECTRUM VIA TRANSITION VELOCITY DIPOLE MOMENTS    
------------------------------------------------------------------------------------------
     Transition      Energy     Energy  Wavelength    R        MX        MY        MZ   
                      (eV)      (cm-1)    (nm)   (1e40*cgs)   (au)      (au)      (au)  
------------------------------------------------------------------------------------------
  0-1A  ->  1-1A    3.981913   32116.3   311.4    3.67912  -0.45512   0.31346  -0.02904
  0-1A  ->  2-1A    6.942302   55993.4   178.6    6.05565  -0.17888  -0.11137  -0.10692
  0-1A  ->  3-1A    7.128434   57494.7   173.9   14.65437   0.05622  -0.13788  -0.01633
  0-1A  ->  4-1A    7.818307   63058.9   158.6   -1.69546   0.02196   0.02543   0.09155
  0-1A  ->  5-1A    7.872211   63493.7   157.5    5.28305   0.04291   0.11056   0.14418
  0-1A  ->  6-1A    8.033832   64797.2   154.3    3.91536   0.09126   0.09682  -0.01097
  0-1A  ->  7-1A    8.337458   67246.1   148.7   10.48094  -0.07832  -0.13345   0.06467
  0-1A  ->  8-1A    8.571460   69133.5   144.6   -3.92926   0.17153  -0.02509   0.21853
  0-1A  ->  9-1A    8.808695   71046.9   140.8  -19.64918   0.14648   0.08157   0.12609
  0-1A  -> 10-1A    8.945464   72150.0   138.6  -45.93581  -0.22916  -0.47758   0.20014
  0-1A  -> 11-1A    9.037055   72888.8   137.2   12.70788   0.04908  -0.04526   0.17292
  0-1A  -> 12-1A    9.263940   74718.7   133.8   12.62511  -0.22437  -0.20774  -0.02786
  0-1A  -> 13-1A    9.570800   77193.7   129.5   -1.41583  -0.06415   0.07364  -0.13008
  0-1A  -> 14-1A    9.709913   78315.7   127.7   -1.82389   0.08753  -0.14794   0.03605
  0-1A  -> 15-1A    9.820011   79203.7   126.3   -2.73454  -0.03123   0.12725   0.14535
  0-1A  -> 16-1A    9.910322   79932.1   125.1    2.48280  -0.09326  -0.03909   0.02059
  0-1A  -> 17-1A   10.059421   81134.7   123.3  -16.32345  -0.25005   0.02961   0.29154
  0-1A  -> 18-1A   10.187771   82169.9   121.7  -15.14384   0.05110   0.06246   0.10506
  0-1A  -> 19-1A   10.301690   83088.7   120.4  -22.62724   0.19748  -0.01804  -0.01303
  0-1A  -> 20-1A   10.332730   83339.1   120.0  -10.57506  -0.08975  -0.12251  -0.06781
  0-1A  -> 21-1A   10.402843   83904.6   119.2   -5.11479  -0.03423  -0.02141   0.05828
  0-1A  -> 22-1A   10.442446   84224.0   118.7   22.55978   0.20840  -0.13303   0.11305
  0-1A  -> 23-1A   10.607582   85555.9   116.9   38.13922   0.11096   0.18602  -0.33585
  0-1A  -> 24-1A   10.705047   86342.0   115.8  -27.43682   0.02391  -0.29604  -0.15904
  0-1A  -> 25-1A   10.717629   86443.5   115.7  -29.02964   0.30781   0.06079   0.21619

Total run time:        5.458 sec

           *** ORCA-CIS/TD-DFT FINISHED WITHOUT ERROR ***
-----------------------
CIS/TD-DFT TOTAL ENERGY
-----------------------

    E(SCF)  =   -408.665338727 Eh
    DE(CIS) =      0.146332630 Eh (Root  1)
    ----------------------------- ---------
    E(tot)  =   -408.519006097 Eh


Maximum memory used throughout the entire CIS-calculation: 160.6 MB
=> NOW LEAVING ORCA_CIS

-------------------------   --------------------
FINAL SINGLE POINT ENERGY      -408.519006096639
-------------------------   --------------------



           ************************************************************
           *        Program running with 8 parallel MPI-processes     *
           *              working on a common directory               *
           ************************************************************

------------------------------------------------------------------------------
                              ORCA PROPERTY CALCULATIONS
------------------------------------------------------------------------------

GBWName                                 ... 2fluorocyclohexanone_3.gbw
Number of atoms                         ...     17
Number of basis functions               ...    157
Max core memory                         ...   1024 MB

Electric properties:
Dipole moment                           ... YES
Quadrupole moment                       ...  NO
Static polarizability (Dipole/Dipole)   ...  NO
Static polarizability (Dipole/Quad.)    ...  NO
Static polarizability (Quad./Quad.)     ...  NO
Static polarizability (Velocity)        ...  NO

Atomic electric properties:
Dipole moment                           ...  NO
Quadrupole moment                       ...  NO
Static polarizability                   ...  NO

Choice of electric origin               ... Center of mass
Position of electric origin             ...    -0.202258     0.003713     0.000991

General magnetic properties:
Magnetizability                         ...  NO

EPR properties:
g-Tensor (aka g-matrix)                 ...  NO
Zero-Field splitting spin-orbit         ...  NO
Zero-field splitting spin-spin          ...  NO
Hyperfine couplings                     ...  NO (   0 nuclei)
Quadrupole couplings                    ...  NO (   0 nuclei)
Contact density                         ...  NO (   0 nuclei)

NMR properties:
Chemical shifts                         ...  NO (   0 nuclei)
Spin-rotation constants                 ...  NO (   0 nuclei)
Spin-spin couplings                     ...  NO (   0 nuclei,    0 pairs)

Choice of magnetic origin               ... GIAO
Position of magnetic origin             ...     0.000000     0.000000     0.000000

Properties with geometric perturbations:
SCF Hessian                             ...  NO
IR spectrum                             ...  NO
VCD spectrum                            ...  NO
X-ray spectroscopy properties:
SCF XES/XAS/RIXS spectra                ...  NO


-------------
DIPOLE MOMENT
-------------

Method             : SCF
Type of density    : Electron Density
Multiplicity       :   1
Irrep              :   0
Energy             :  -408.6653387270242206 Eh
Relativity type    : 
Basis              : AO
                                X                 Y                 Z
Electronic contribution:    -10.931658016      -0.156252515       0.187072753
Nuclear contribution   :     12.538267852      -0.230565070      -0.062217875
                        -----------------------------------------
Total Dipole Moment    :      1.606609836      -0.386817585       0.124854878
                        -----------------------------------------
Magnitude (a.u.)       :      1.657230144
Magnitude (Debye)      :      4.212344266



--------------------
Rotational spectrum 
--------------------
 
Rotational constants in cm-1:             0.095414             0.067808             0.042899 
Rotational constants in MHz :          2860.428867          2032.833274          1286.089615 

Dipole components along the rotational axes: 
x,y,z [a.u.] :     1.597250    -0.424010     0.124178 
x,y,z [Debye]:     4.059887    -1.077748     0.315635 

 

Dipole moment calculation done in   0.0 sec 

Maximum memory used throughout the entire PROP-calculation: 7.7 MB

--------------------------------
SUGGESTED CITATIONS FOR THIS RUN
--------------------------------

Below you find a list of papers that are relevant to this ORCA run
We neither can nor want to force you to cite these papers, but we appreciate if you do
You receive ORCA, which is the product of decades of hard work by many enthusiastic individuals, for free
The only thing we kindly ask in return is that you cite our papers,
We deeply appreciate it, if you show your appreciation for ORCA by not just citing the generic ORCA reference.

Please note that relegating all ORCA citations to the supporting information does *not* help us.
SI sections are not indexed - citations you put there will not count into any citation statistics
But we need these citations in order to attract the funding resources that allow us to do what we are doing

Therefore, if you are a happy ORCA user, please consider citing a few of the papers listed below in the main body of your paper

In addition to the list printed below, the program has created the file 2fluorocyclohexanone_3.bibtex that contains the list in bibtex format
You can import this file easily into all common literature databanks and citation aid programs


List of essential papers. We consider these as the minimum necessary citations

  1. Neese,F.
     Software update: the ORCA program system, version 5.0
     WIRES Comput. Molec. Sci., 2022 12(1)e1606
     doi.org/10.1002/wcms.1606

List of papers to cite with high priority. The work reported in these papers was absolutely
necessary for this run to complete.
Our perspective: the developers of density functionals and basis sets usually get cited in chemistry papers
Good! But without the algorithms to do something with them, the functionals or basis sets would not do anything.
Hence, in our opinion, the algorithm design and method developments papers are equally worthy of getting cited

  1. Neese,F.; Olbrich,G.
     Efficient use of the resolution of the identity approximation in time-dependent density functional calculations with hybrid density functionals
     Chem. Phys. Lett., 2002 362 170-178
     doi.org/10.1016/s0009-2614(02)01053-9
  2. Neese,F.
     An improvement of the resolution of the identity approximation for the formation of the Coulomb matrix
     J. Comp. Chem., 2003 24(14)1740-1747
     doi.org/10.1002/jcc.10318
  3. Neese,F.; Wennmohs,F.; Hansen,A.; Becker,U.
     Efficient, approximate and parallel Hartree-Fock and hybrid DFT calculations. A 'chain-of-spheres' algorithm for the Hartree-Fock exchange
     Chem. Phys., 2009 356(1-3)98-109
     doi.org/10.1016/j.chemphys.2008.10.036
  4. Helmich-Paris,B.; de Souza,B.; Neese,F.; Izsák,R.
     An improved chain of spheres for exchange algorithm
     J. Chem. Phys., 2021 155 104109
     doi.org/doi: 10.1063/5.0058766.
  5. Neese,F.
     The SHARK Integral Generation and Digestion System
     J. Comp. Chem., 2022  1-16
     doi.org/10.1002/jcc.26942

List of suggested additional citations. These are papers that are important in the 'surrounding' of 
of this run, or papers that preceded the highly important papers. If you like your results we are grateful for a citation.

  1. Izsak,R.; Neese,F.
     An overlap fitted chain of spheres exchange method
     J. Chem. Phys., 2011 135 144105
     doi.org/10.1063/1.3646921
  2. Izsak,R.; Hansen,A.; Neese,F.
     The resolution of identity and chain of spheres approximations for the LPNO-CCSD singles Fock term
     Molec. Phys., 2012 110 2413-2417
     doi.org/10.1080/00268976.2012.687466
  3. Neese,F.
     The ORCA program system
     WIRES Comput. Molec. Sci., 2012 2(1)73-78
     doi.org/10.1002/wcms.81
  4. Izsak,R.; Neese,F.; Klopper,W.
     Robust fitting techniques in the chain of spheres approximation to the Fock exchange: The role of the complementary space
     J. Chem. Phys., 2013 139 
     doi.org/10.1063/1.4819264
  5. Neese,F.
     Software update: the ORCA program system, version 4.0
     WIRES Comput. Molec. Sci., 2018 8(1)1-6
     doi.org/10.1002/wcms.1327
  6. Neese,F.; Wennmohs,F.; Becker,U.; Riplinger,C.
     The ORCA quantum chemistry program package
     J. Chem. Phys., 2020 152 Art. No. L224108
     doi.org/10.1063/5.0004608

List of optional additional citations

  1. Neese,F.
     Approximate second-order SCF convergence for spin unrestricted wavefunctions
     Chem. Phys. Lett., 2000 325(1-3)93-98
     doi.org/10.1016/s0009-2614(00)00662-x

Timings for individual modules:

Sum of individual times          ...        8.882 sec (=   0.148 min)
Startup calculation              ...        0.533 sec (=   0.009 min)   6.0 %
SCF iterations                   ...        2.460 sec (=   0.041 min)  27.7 %
Property integrals               ...        0.158 sec (=   0.003 min)   1.8 %
Property calculations            ...        0.149 sec (=   0.002 min)   1.7 %
CIS module                       ...        5.582 sec (=   0.093 min)  62.8 %
                             ****ORCA TERMINATED NORMALLY****
TOTAL RUN TIME: 0 days 0 hours 0 minutes 9 seconds 21 msec
