
                                 *****************
                                 * O   R   C   A *
                                 *****************

                                            #,                                       
                                            ###                                      
                                            ####                                     
                                            #####                                    
                                            ######                                   
                                           ########,                                 
                                     ,,################,,,,,                         
                               ,,#################################,,                 
                          ,,##########################################,,             
                       ,#########################################, ''#####,          
                    ,#############################################,,   '####,        
                  ,##################################################,,,,####,       
                ,###########''''           ''''###############################       
              ,#####''   ,,,,##########,,,,          '''####'''          '####       
            ,##' ,,,,###########################,,,                        '##       
           ' ,,###''''                  '''############,,,                           
         ,,##''                                '''############,,,,        ,,,,,,###''
      ,#''                                            '''#######################'''  
     '                                                          ''''####''''         
             ,#######,   #######,   ,#######,      ##                                
            ,#'     '#,  ##    ##  ,#'     '#,    #''#        ,####,   ,####,        
            ##       ##  ##   ,#'  ##            #'  '#       #'       #'  '#        
            ##       ##  #######   ##           ,######,      #####,   #    #        
            '#,     ,#'  ##    ##  '#,     ,#' ,#      #,     #,   #   #,  ,#        
             '#######'   ##     ##  '#######'  #'      '#     '####' # '####'        



                #########################################################
                #                        -***-                          #
                #          Department of theory and spectroscopy        #
                #                                                       #
                #                      Frank Neese                      #
                #                                                       #
                #     Directorship, Architecture, Infrastructure        #
                #                    SHARK, DRIVERS                     #
                #        Core code/Algorithms in most modules           #
                #                                                       #
                #        Max Planck Institute fuer Kohlenforschung      #
                #                Kaiser Wilhelm Platz 1                 #
                #                 D-45470 Muelheim/Ruhr                 #
                #                      Germany                          #
                #                                                       #
                #                  All rights reserved                  #
                #                        -***-                          #
                #########################################################


                         Program Version 6.0.0  -   RELEASE  -


 With contributions from (in alphabetic order):
   Daniel Aravena         : Magnetic Suceptibility
   Michael Atanasov       : Ab Initio Ligand Field Theory (pilot matlab implementation)
   Alexander A. Auer      : GIAO ZORA, VPT2 properties, NMR spectrum
   Ute Becker             : All parallelization in ORCA, NUMFREQ, NUMCALC
   Giovanni Bistoni       : ED, misc. LED, open-shell LED, HFLD
   Martin Brehm           : Molecular dynamics
   Dmytro Bykov           : pre 5.0 version of the SCF Hessian
   Marcos Casanova-Páez   : Triplet and SCS-CIS(D). UHF-(DLPNO)-IP/EA/STEOM-CCSD. UHF-CVS-IP/STEOM-CCSD
   Vijay G. Chilkuri      : MRCI spin determinant printing, contributions to CSF-ICE
   Pauline Colinet        : FMM embedding
   Dipayan Datta          : RHF DLPNO-CCSD density
   Achintya Kumar Dutta   : EOM-CC, STEOM-CC
   Nicolas Foglia         : Exact transition moments, OPA infrastructure, MCD improvements
   Dmitry Ganyushin       : Spin-Orbit,Spin-Spin,Magnetic field MRCI
   Miquel Garcia          : C-PCM and meta-GGA Hessian, CCSD/C-PCM, Gaussian charge scheme
   Tiago L. C. Gouveia    : GS-ROHF, GS-ROCIS
   Yang Guo               : DLPNO-NEVPT2, F12-NEVPT2, CIM, IAO-localization
   Andreas Hansen         : Spin unrestricted coupled pair/coupled cluster methods
   Ingolf Harden          : AUTO-CI MPn and infrastructure 
   Benjamin Helmich-Paris : MC-RPA, TRAH-(SCF,CASSCF), AVAS, COSX integrals, SCF dyn. polar.
   Lee Huntington         : MR-EOM, pCC
   Robert Izsak           : Overlap fitted RIJCOSX, COSX-SCS-MP3, EOM
   Riya Kayal             : Wick's Theorem for AUTO-CI, AUTO-CI UHF-CCSDT
   Emily Kempfer          : AUTO-CI, RHF CISDT and CCSDT
   Christian Kollmar      : KDIIS, OOCD, Brueckner-CCSD(T), CCSD density, CASPT2, CASPT2-K, improved NEVPT2
   Axel Koslowski         : Symmetry handling
   Simone Kossmann        : Meta GGA functionals, TD-DFT gradient, OOMP2, (MP2 Hessian; deprecated post 5.0)
   Lucas Lang             : DCDCAS
   Marvin Lechner         : AUTO-CI (C++ implementation), FIC-MRCC
   Spencer Leger          : CASSCF response
   Dagmar Lenk            : GEPOL surface, SMD, ORCA-2-JSON
   Dimitrios Liakos       : Extrapolation schemes; Compound Job, initial MDCI parallelization
   Dimitrios Manganas     : Further ROCIS development; embedding schemes. LFT, Crystal Embedding
   Dimitrios Pantazis     : SARC Basis sets
   Anastasios Papadopoulos: AUTO-CI, single reference methods and gradients
   Taras Petrenko         : pre 6.0 DFT Hessian and TD-DFT gradient, (ASA, deprecated), ECA, 1-Electron XAS/XES, NRVS
   Peter Pinski           : DLPNO-MP2, DLPNO-MP2 Gradient
   Christoph Reimann      : Effective Core Potentials
   Marius Retegan         : Local ZFS, SOC
   Christoph Riplinger    : Optimizer, TS searches, QM/MM, DLPNO-CCSD(T), (RO)-DLPNO pert. Triples
   Michael Roemelt        : Original ROCIS implementation
   Masaaki Saitow         : Open-shell DLPNO-CCSD energy and density
   Barbara Sandhoefer     : DKH picture change effects
   Kantharuban Sivalingam : CASSCF convergence/infrastructure, NEVPT2 and variants, FIC-MRCI
   Bernardo de Souza      : ESD, SOC TD-DFT
   Georgi Stoychev        : AutoAux, RI-MP2 NMR, DLPNO-MP2 response, X2C
   Van Anh Tran           : RI-MP2 g-tensors
   Willem Van den Heuvel  : Paramagnetic NMR
   Zikuan Wang            : NOTCH, Electric field optimization 
   Frank Wennmohs         : Technical directorship and infrastructure
   Hang Xu                : AUTO-CI-Response properties 


 We gratefully acknowledge several colleagues who have allowed us to
 interface, adapt or use parts of their codes:
   Stefan Grimme, W. Hujo, H. Kruse, P. Pracht,  : VdW corrections, initial TS optimization,
                  C. Bannwarth, S. Ehlert,         DFT functionals, gCP, sTDA/sTD-DF
                  L. Wittmann, M. Mueller
   Ed Valeev, F. Pavosevic, A. Kumar             : LibInt (2-el integral package), F12 methods
   Garnet Chan, S. Sharma, J. Yang, R. Olivares  : DMRG
   Ulf Ekstrom                                   : XCFun DFT Library
   Mihaly Kallay                                 : mrcc  (arbitrary order and MRCC methods)
   Frank Weinhold                                : gennbo (NPA and NBO analysis)
   Simon Mueller                                 : openCOSMO-RS
   Christopher J. Cramer and Donald G. Truhlar   : smd solvation model
   Lars Goerigk                                  : TD-DFT with DH, B97 family of functionals
   V. Asgeirsson, H. Jonsson                     : NEB implementation
   FAccTs GmbH                                   : IRC, NEB, NEB-TS, DLPNO-Multilevel, CI-OPT
                                                   MM, QMMM, 2- and 3-layer-ONIOM, Crystal-QMMM,
                                                   LR-CPCM, SF, NACMEs, symmetry and pop. for TD-DFT,
                                                   nearIR, NL-DFT gradient (VV10), updates on ESD,
                                                   ML-optimized integration grids, MBIS, APM,
                                                   GOAT, DOCKER, SOLVATOR, interface openCOSMO-RS
   S Lehtola, MJT Oliveira, MAL Marques          : LibXC Library
   Liviu Ungur et al                             : ANISO software


 Your calculation uses the libint2 library for the computation of 2-el integrals
 For citations please refer to: http://libint.valeyev.net

 Your ORCA version has been built with support for libXC version: 6.2.2
 For citations please refer to: https://libxc.gitlab.io

 This ORCA versions uses:
   CBLAS   interface :  Fast vector & matrix operations
   LAPACKE interface :  Fast linear algebra routines
   SCALAPACK package :  Parallel linear algebra routines
   Shared memory     :  Shared parallel matrices
   BLAS/LAPACK       :  OpenBLAS 0.3.27  USE64BITINT DYNAMIC_ARCH NO_AFFINITY Haswell SINGLE_THREADED
        Core in use  :  Haswell
   Copyright (c) 2011-2014, The OpenBLAS Project


Warning: RI is on but no J-basis has been assigned. Assigning Def2/J (nothing to worry about!)
================================================================================

----- Orbital basis set information -----
Your calculation utilizes the basis: 6-31G**
   H-He, Li-Ne : W. J. Hehre, R. Ditchfield and J.A. Pople, J. Chem. Phys. 56, 2257 (1972).
                 Note: He and Ne are unpublished basis sets taken from the Gaussian program.
                 Note: Li and B from J. D. Dill and J. A. Pople, J. Chem. Phys. 62, 2921 (1975).
   Na - Ar     : M. M. Francl, W. J. Pietro, W. J. Hehre, J. S. Binkley, M. S. Gordon, 
                 D. J. DeFrees and J. A. Pople, J. Chem. Phys. 77, 3654 (1982).
   K - Zn      : V. A. Rassolov, J. A. Pople, M. A. Ratner, and T. L. Windus, J. Chem. Phys. 109, 1223 (1998).

----- AuxJ basis set information -----
Your calculation utilizes the auxiliary basis: def2/J
   F. Weigend, Phys. Chem. Chem. Phys. 8, 1057 (2006).

================================================================================
                                        WARNINGS
                       Please study these warnings very carefully!
================================================================================

INFO   : Checking CIS options ...

INFO   : Since TDDFT/CIS Mode == RPA_AOINTS, the TAMMDANCOFF/TDA keyword is ignored. 


WARNING: CIS/ROCIS methods need fully converged wavefunctions
  ===> : Setting SCFConvForced true
         You can overwrite this default with %scf ConvForced false 


================================================================================
                                       INPUT FILE
================================================================================
NAME = 2fluorocyclohexanone_2.inp
|  1> !PAL8
|  2> !PBE0 6-31G** printbasis printmos
|  3> %tddft
|  4> tda false
|  5> nroots=25
|  6> end
|  7> *xyz 0 1
|  8> C      -0.157500   -1.395500    0.582200
|  9> C       1.256600   -1.353200    0.018400
| 10> C       1.818100    0.066800    0.000000
| 11> C       0.911000    1.002600   -0.798200
| 12> C      -0.507700    1.012800   -0.245200
| 13> C      -1.047400   -0.403200   -0.134300
| 14> O      -2.180500   -0.713500   -0.518400
| 15> F      -0.492000    1.625800    0.979000
| 16> H      -0.160300   -1.146200    1.648800
| 17> H      -0.574100   -2.401500    0.466300
| 18> H       1.254200   -1.751000   -1.004100
| 19> H       1.909700   -2.001000    0.613600
| 20> H       1.923700    0.437100    1.027000
| 21> H       2.819600    0.059700   -0.444500
| 22> H       1.326000    2.016000   -0.764000
| 23> H       0.897200    0.682500   -1.847200
| 24> H      -1.162900    1.598700   -0.897400
| 25> *
| 26> 
| 27>                          ****END OF INPUT****
================================================================================

                       ****************************
                       * Single Point Calculation *
                       ****************************

---------------------------------
CARTESIAN COORDINATES (ANGSTROEM)
---------------------------------
  C     -0.157500   -1.395500    0.582200
  C      1.256600   -1.353200    0.018400
  C      1.818100    0.066800    0.000000
  C      0.911000    1.002600   -0.798200
  C     -0.507700    1.012800   -0.245200
  C     -1.047400   -0.403200   -0.134300
  O     -2.180500   -0.713500   -0.518400
  F     -0.492000    1.625800    0.979000
  H     -0.160300   -1.146200    1.648800
  H     -0.574100   -2.401500    0.466300
  H      1.254200   -1.751000   -1.004100
  H      1.909700   -2.001000    0.613600
  H      1.923700    0.437100    1.027000
  H      2.819600    0.059700   -0.444500
  H      1.326000    2.016000   -0.764000
  H      0.897200    0.682500   -1.847200
  H     -1.162900    1.598700   -0.897400

----------------------------
CARTESIAN COORDINATES (A.U.)
----------------------------
  NO LB      ZA    FRAG     MASS         X           Y           Z
   0 C     6.0000    0    12.011   -0.297632   -2.637113    1.100199
   1 C     6.0000    0    12.011    2.374630   -2.557177    0.034771
   2 C     6.0000    0    12.011    3.435711    0.126234    0.000000
   3 C     6.0000    0    12.011    1.721541    1.894639   -1.508379
   4 C     6.0000    0    12.011   -0.959414    1.913915   -0.463361
   5 C     6.0000    0    12.011   -1.979299   -0.761938   -0.253790
   6 O     8.0000    0    15.999   -4.120548   -1.348320   -0.979634
   7 F     9.0000    0    18.998   -0.929745    3.072317    1.850042
   8 H     1.0000    0     1.008   -0.302923   -2.166004    3.115780
   9 H     1.0000    0     1.008   -1.084892   -4.538177    0.881179
  10 H     1.0000    0     1.008    2.370095   -3.308910   -1.897474
  11 H     1.0000    0     1.008    3.608810   -3.781342    1.159536
  12 H     1.0000    0     1.008    3.635266    0.825999    1.940749
  13 H     1.0000    0     1.008    5.328272    0.112817   -0.839983
  14 H     1.0000    0     1.008    2.505777    3.809688   -1.443751
  15 H     1.0000    0     1.008    1.695462    1.289738   -3.490702
  16 H     1.0000    0     1.008   -2.197563    3.021105   -1.695840

--------------------------------
INTERNAL COORDINATES (ANGSTROEM)
--------------------------------
 C      0   0   0     0.000000000000     0.00000000     0.00000000
 C      1   0   0     1.522937470811     0.00000000     0.00000000
 C      2   1   0     1.527095547109   111.82063557     0.00000000
 C      3   2   1     1.528291624658   110.94242554   303.11065649
 C      4   3   2     1.522702443027   111.55680097    57.08086637
 C      1   2   3     1.513259247452   110.64294291    52.38284512
 O      6   1   2     1.236015578381   121.44092117   134.46484652
 F      5   4   3     1.369189953951   108.48327990    68.99890843
 H      1   2   3     1.095351035057   110.88787772   292.46954503
 H      1   2   3     1.094999712329   109.85254287   173.00288320
 H      2   1   3     1.097158534579   109.44564601   239.03034849
 H      2   1   3     1.095649346278   109.63049999   121.89722425
 H      3   2   1     1.096814683527   109.75847223    64.68978252
 H      3   2   1     1.095733959499   109.56842232   182.02915598
 H      4   3   2     1.095615899848   108.98034113   178.22626011
 H      4   3   2     1.096838844133   109.16397182   295.64537596
 H      5   4   3     1.094500201005   110.17686814   186.37419419

---------------------------
INTERNAL COORDINATES (A.U.)
---------------------------
 C      0   0   0     0.000000000000     0.00000000     0.00000000
 C      1   0   0     2.877934738919     0.00000000     0.00000000
 C      2   1   0     2.885792364367   111.82063557     0.00000000
 C      3   2   1     2.888052623369   110.94242554   303.11065649
 C      4   3   2     2.877490600774   111.55680097    57.08086637
 C      1   2   3     2.859645547309   110.64294291    52.38284512
 O      6   1   2     2.335730940400   121.44092117   134.46484652
 F      5   4   3     2.587394038283   108.48327990    68.99890843
 H      1   2   3     2.069913476765   110.88787772   292.46954503
 H      1   2   3     2.069249573024   109.85254287   173.00288320
 H      2   1   3     2.073329155849   109.44564601   239.03034849
 H      2   1   3     2.070477203276   109.63049999   121.89722425
 H      3   2   1     2.072679371529   109.75847223    64.68978252
 H      3   2   1     2.070637099091   109.56842232   182.02915598
 H      4   3   2     2.070413998683   108.98034113   178.22626011
 H      4   3   2     2.072725028459   109.16397182   295.64537596
 H      5   4   3     2.068305633421   110.17686814   186.37419419

---------------------
BASIS SET INFORMATION
---------------------
There are 4 groups of distinct atoms

 Group   1 Type C   : 10s4p1d contracted to 3s2p1d pattern {631/31/1}
 Group   2 Type O   : 10s4p1d contracted to 3s2p1d pattern {631/31/1}
 Group   3 Type F   : 10s4p1d contracted to 3s2p1d pattern {631/31/1}
 Group   4 Type H   : 4s1p contracted to 2s1p pattern {31/1}

Atom   0C    basis set group =>   1
Atom   1C    basis set group =>   1
Atom   2C    basis set group =>   1
Atom   3C    basis set group =>   1
Atom   4C    basis set group =>   1
Atom   5C    basis set group =>   1
Atom   6O    basis set group =>   2
Atom   7F    basis set group =>   3
Atom   8H    basis set group =>   4
Atom   9H    basis set group =>   4
Atom  10H    basis set group =>   4
Atom  11H    basis set group =>   4
Atom  12H    basis set group =>   4
Atom  13H    basis set group =>   4
Atom  14H    basis set group =>   4
Atom  15H    basis set group =>   4
Atom  16H    basis set group =>   4

-------------------------
BASIS SET IN INPUT FORMAT
-------------------------

 # Basis set for element : H 
 NewGTO H 
 S 3 
   1      18.7311370000      0.0334945995
   2       2.8253937000      0.2347269467
   3       0.6401217000      0.8137573184
 S 1 
   1       0.1612778000      1.0000000000
 P 1 
   1       1.1000000000      1.0000000000
  end;

 # Basis set for element : C 
 NewGTO C 
 S 6 
   1    3047.5249000000      0.0018347002
   2     457.3695100000      0.0140373012
   3     103.9486900000      0.0688426061
   4      29.2101550000      0.2321844206
   5       9.2866630000      0.4679413416
   6       3.1639270000      0.3623120322
 S 3 
   1       7.8682724000     -0.1193324086
   2       1.8812885000     -0.1608542116
   3       0.5442493000      1.1434564826
 P 3 
   1       7.8682724000      0.0689990956
   2       1.8812885000      0.3164239798
   3       0.5442493000      0.7443082524
 S 1 
   1       0.1687144000      1.0000000000
 P 1 
   1       0.1687144000      1.0000000000
 D 1 
   1       0.8000000000      1.0000000000
  end;

 # Basis set for element : O 
 NewGTO O 
 S 6 
   1    5484.6717000000      0.0018310998
   2     825.2349500000      0.0139500985
   3     188.0469600000      0.0684450927
   4      52.9645000000      0.2327142753
   5      16.8975700000      0.4701929501
   6       5.7996353000      0.3585208619
 S 3 
   1      15.5396160000     -0.1107775038
   2       3.5999336000     -0.1480263051
   3       1.0137618000      1.1307670390
 P 3 
   1      15.5396160000      0.0708742995
   2       3.5999336000      0.3397527978
   3       1.0137618000      0.7271585953
 S 1 
   1       0.2700058000      1.0000000000
 P 1 
   1       0.2700058000      1.0000000000
 D 1 
   1       0.8000000000      1.0000000000
  end;

 # Basis set for element : F 
 NewGTO F 
 S 6 
   1    7001.7130900000      0.0018196200
   2    1051.3660900000      0.0139160800
   3     239.2856900000      0.0684053199
   4      67.3974453000      0.2331857596
   5      21.5199573000      0.4712674391
   6       7.4031013000      0.3566185493
 S 3 
   1      20.8479528000     -0.1085069803
   2       4.8083083400     -0.1464516604
   3       1.3440698600      1.1286885835
 P 3 
   1      20.8479528000      0.0716287200
   2       4.8083083400      0.3459121001
   3       1.3440698600      0.7224699603
 S 1 
   1       0.3581513900      1.0000000000
 P 1 
   1       0.3581513900      1.0000000000
 D 1 
   1       0.8000000000      1.0000000000
  end;

---------------------------------
AUXILIARY/J BASIS SET INFORMATION
---------------------------------
There are 4 groups of distinct atoms

 Group   1 Type C   : 12s5p4d2f1g contracted to 6s4p3d1f1g pattern {711111/2111/211/2/1}
 Group   2 Type O   : 12s5p4d2f1g contracted to 6s4p3d1f1g pattern {711111/2111/211/2/1}
 Group   3 Type F   : 12s5p4d2f1g contracted to 6s4p3d1f1g pattern {711111/2111/211/2/1}
 Group   4 Type H   : 5s2p1d contracted to 3s1p1d pattern {311/2/1}

Atom   0C    basis set group =>   1
Atom   1C    basis set group =>   1
Atom   2C    basis set group =>   1
Atom   3C    basis set group =>   1
Atom   4C    basis set group =>   1
Atom   5C    basis set group =>   1
Atom   6O    basis set group =>   2
Atom   7F    basis set group =>   3
Atom   8H    basis set group =>   4
Atom   9H    basis set group =>   4
Atom  10H    basis set group =>   4
Atom  11H    basis set group =>   4
Atom  12H    basis set group =>   4
Atom  13H    basis set group =>   4
Atom  14H    basis set group =>   4
Atom  15H    basis set group =>   4
Atom  16H    basis set group =>   4

-------------------------------------
AUXILIARY/J BASIS SET IN INPUT FORMAT
-------------------------------------

 # Auxiliary/J basis set for element : H 
 NewAuxJGTO H 
 S 3 
   1      15.6752927000      0.1007184237
   2       3.6063578000      0.3404257499
   3       1.2080016000      0.6491996172
 S 1 
   1       0.4726794000      1.0000000000
 S 1 
   1       0.2018100000      1.0000000000
 P 2 
   1       2.0281365000      0.5596620919
   2       0.5358730000      0.5596620919
 D 1 
   1       2.2165124000      1.0000000000
  end;

 # Auxiliary/J basis set for element : C 
 NewAuxJGTO C 
 S 7 
   1    1861.0916331000      0.0134602335
   2     642.9939764000      0.0299160374
   3     235.1105725000      0.1008649584
   4      90.7028894000      0.2370970548
   5      36.7794552000      0.3924037254
   6      15.6046273000      0.3195862154
   7       6.8907294000      0.0530104441
 S 1 
   1       3.1478850000     -1.0000000000
 S 1 
   1       1.4777287000      1.0000000000
 S 1 
   1       0.7076466000      1.0000000000
 S 1 
   1       0.3430122000      1.0000000000
 S 1 
   1       0.1669453000      1.0000000000
 P 2 
   1      13.5472892000     -0.6769313712
   2       5.4669419000     -0.3779500978
 P 1 
   1       2.1751721000      1.0000000000
 P 1 
   1       0.8582194000      1.0000000000
 P 1 
   1       0.3376720000      1.0000000000
 D 2 
   1       5.9287253000     -0.3533329857
   2       1.9809209000     -0.7456525731
 D 1 
   1       0.8055417000     -1.0000000000
 D 1 
   1       0.3531244000     -1.0000000000
 F 2 
   1       1.6755626000      0.6311076882
   2       0.5997536000      0.4968166032
 G 1 
   1       1.0024600000     -1.0000000000
  end;

 # Auxiliary/J basis set for element : O 
 NewAuxJGTO O 
 S 7 
   1    2876.8216605000      0.0168151159
   2    1004.7443032000      0.0340137548
   3     369.7579954000      0.1194951309
   4     142.9442404000      0.2664627624
   5      57.8366425000      0.4202764046
   6      24.3864983000      0.2765077335
   7      10.6622662000      0.0057008815
 S 1 
   1       4.8070437000     -1.0000000000
 S 1 
   1       2.2210770000      1.0000000000
 S 1 
   1       1.0447795000      1.0000000000
 S 1 
   1       0.4968425000      1.0000000000
 S 1 
   1       0.2371384000      1.0000000000
 P 2 
   1      64.2613382000     -0.2731534179
   2      16.3006076000     -0.8168011598
 P 1 
   1       4.3550542000      1.0000000000
 P 1 
   1       1.2019554000      1.0000000000
 P 1 
   1       0.3354196000      1.0000000000
 D 2 
   1       9.2146611000     -0.4661230638
   2       2.8435251000     -0.6600908911
 D 1 
   1       0.9955759000     -1.0000000000
 D 1 
   1       0.3649441000     -1.0000000000
 F 2 
   1       2.6420115000      0.5931563945
   2       0.7345613000      0.5931563945
 G 1 
   1       1.3931000000     -1.0000000000
  end;

 # Auxiliary/J basis set for element : F 
 NewAuxJGTO F 
 S 7 
   1    3514.9201549000      0.0176189594
   2    1231.2458815000      0.0358663858
   3     454.1367336000      0.1239867649
   4     175.8376258000      0.2758620517
   5      71.2081775000      0.4252764982
   6      30.0316883000      0.2651963387
   7      13.1259023000     -0.0078514564
 S 1 
   1       5.9126861000     -1.0000000000
 S 1 
   1       2.7284431000      1.0000000000
 S 1 
   1       1.2813993000      1.0000000000
 S 1 
   1       0.6082793000      1.0000000000
 S 1 
   1       0.2897894000      1.0000000000
 P 2 
   1      49.3740409000     -0.8404235528
   2      13.4874956000     -0.2331250081
 P 1 
   1       3.9664900000      1.0000000000
 P 1 
   1       1.2226629000     -1.0000000000
 P 1 
   1       0.3830317000      1.0000000000
 D 2 
   1      29.9719140000     -0.2160273306
   2       6.7860915000     -0.8915140390
 D 1 
   1       1.8137313000     -1.0000000000
 D 1 
   1       0.5157840000     -1.0000000000
 F 2 
   1       2.8301877000      0.5762078303
   2       0.9155962000      0.5762078303
 G 1 
   1       1.6097500000     -1.0000000000
  end;



           ************************************************************
           *        Program running with 8 parallel MPI-processes     *
           *              working on a common directory               *
           ************************************************************
------------------------------------------------------------------------------
                             ORCA STARTUP CALCULATIONS
                           -- RI-GTO INTEGRALS CHOSEN --
------------------------------------------------------------------------------
------------------------------------------------------------------------------
                   ___                                                        
                  /   \      - P O W E R E D   B Y -                         
                 /     \                                                     
                 |  |  |   _    _      __       _____    __    __             
                 |  |  |  | |  | |    /  \     |  _  \  |  |  /  |          
                  \  \/   | |  | |   /    \    | | | |  |  | /  /          
                 / \  \   | |__| |  /  /\  \   | |_| |  |  |/  /          
                |  |  |   |  __  | /  /__\  \  |    /   |      \           
                |  |  |   | |  | | |   __   |  |    \   |  |\   \          
                \     /   | |  | | |  |  |  |  | |\  \  |  | \   \       
                 \___/    |_|  |_| |__|  |__|  |_| \__\ |__|  \__/        
                                                                              
                      - O R C A' S   B I G   F R I E N D -                    
                                      &                                       
                       - I N T E G R A L  F E E D E R -                       
                                                                              
 v1 FN, 2020, v2 2021, v3 2022-2024                                           
------------------------------------------------------------------------------


----------------------
SHARK INTEGRAL PACKAGE
----------------------

Number of atoms                             ...     17
Number of basis functions                   ...    157
Number of shells                            ...     75
Maximum angular momentum                    ...      2
Integral batch strategy                     ... SHARK/LIBINT Hybrid
RI-J (if used) integral strategy            ... SPLIT-RIJ (Revised 2003 algorithm where possible)
Printlevel                                  ...      1
Contraction scheme used                     ... SEGMENTED contraction
Prescreening option                         ... SCHWARTZ
   Thresh                                   ... 1.000e-10
   Tcut                                     ... 1.000e-11
   Tpresel                                  ... 1.000e-11 
Coulomb Range Separation                    ... NOT USED
Exchange Range Separation                   ... NOT USED
Multipole approximations                    ... NOT USED
Finite Nucleus Model                        ... NOT USED
CABS basis                                  ... NOT available
Auxiliary Coulomb fitting basis             ... AVAILABLE
   # of basis functions in Aux-J            ...    491
   # of shells in Aux-J                     ...    165
   Maximum angular momentum in Aux-J        ...      4
Auxiliary J/K fitting basis                 ... NOT available
Auxiliary Correlation fitting basis         ... NOT available
Auxiliary 'external' fitting basis          ... NOT available

Checking pre-screening integrals            ... done (  0.0 sec) Dimension = 75
Check shell pair data                       ... done (  0.0 sec)
Shell pair information
Shell pair cut-off parameter TPreSel        ...   1.0e-11
Total number of shell pairs                 ...      2850
Shell pairs after pre-screening             ...      2704
Total number of primitive shell pairs       ...     13890
Primitive shell pairs kept                  ...      9082
          la=0 lb=0:    850 shell pairs
          la=1 lb=0:    991 shell pairs
          la=1 lb=1:    306 shell pairs
          la=2 lb=0:    327 shell pairs
          la=2 lb=1:    194 shell pairs
          la=2 lb=2:     36 shell pairs

Calculating one electron integrals          ... done (  0.0 sec)
Calculating RI/J V-Matrix + Cholesky decomp.... done (  0.0 sec)
Calculating Nuclear repulsion               ... done (  0.0 sec) ENN=    395.293015499099 Eh

Diagonalization of the overlap matrix:
Smallest eigenvalue                        ... 3.071e-03
Time for diagonalization                   ...    0.001 sec
Threshold for overlap eigenvalues          ... 1.000e-07
Number of eigenvalues below threshold      ... 0
Time for construction of square roots      ...    0.000 sec
Total time needed                          ...    0.002 sec

-------------------
DFT GRID GENERATION
-------------------

General Integration Accuracy     IntAcc      ... 4.388
Radial Grid Type                 RadialGrid  ... OptM3 with GC (2021)
Angular Grid (max. ang.)         AngularGrid ... 4 (Lebedev-302)
Angular grid pruning method      GridPruning ... 4 (adaptive)
Weight generation scheme         WeightScheme... mBecke (2022)
Basis function cutoff            BFCut       ... 1.0000e-10
Integration weight cutoff        WCut        ... 1.0000e-14
Partially contracted basis set               ... off
Rotationally invariant grid construction     ... off
Angular grids for H and He will be reduced by one unit

Total number of grid points                  ...    76875
Total number of batches                      ...     1210
Average number of points per batch           ...       63
Average number of grid points per atom       ...     4522

--------------------
COSX GRID GENERATION
--------------------

GRIDX 1
-------
General Integration Accuracy     IntAcc      ... 3.816
Radial Grid Type                 RadialGrid  ... OptM3 with GC (2021)
Angular Grid (max. ang.)         AngularGrid ... 1 (Lebedev-50)
Angular grid pruning method      GridPruning ... 4 (adaptive)
Weight generation scheme         WeightScheme... mBecke (2022)
Basis function cutoff            BFCut       ... 1.0000e-10
Integration weight cutoff        WCut        ... 1.0000e-14
Partially contracted basis set               ... on
Rotationally invariant grid construction     ... off
Angular grids for H and He will be reduced by one unit

Total number of grid points                  ...     9814
Total number of batches                      ...       90
Average number of points per batch           ...      109
Average number of grid points per atom       ...      577
UseSFitting                                  ... on

GRIDX 2
-------
General Integration Accuracy     IntAcc      ... 4.020
Radial Grid Type                 RadialGrid  ... OptM3 with GC (2021)
Angular Grid (max. ang.)         AngularGrid ... 2 (Lebedev-110)
Angular grid pruning method      GridPruning ... 4 (adaptive)
Weight generation scheme         WeightScheme... mBecke (2022)
Basis function cutoff            BFCut       ... 1.0000e-10
Integration weight cutoff        WCut        ... 1.0000e-14
Partially contracted basis set               ... on
Rotationally invariant grid construction     ... off
Angular grids for H and He will be reduced by one unit

Total number of grid points                  ...    21130
Total number of batches                      ...      174
Average number of points per batch           ...      121
Average number of grid points per atom       ...     1243
UseSFitting                                  ... on

GRIDX 3
-------
General Integration Accuracy     IntAcc      ... 4.338
Radial Grid Type                 RadialGrid  ... OptM3 with GC (2021)
Angular Grid (max. ang.)         AngularGrid ... 3 (Lebedev-194)
Angular grid pruning method      GridPruning ... 4 (adaptive)
Weight generation scheme         WeightScheme... mBecke (2022)
Basis function cutoff            BFCut       ... 1.0000e-10
Integration weight cutoff        WCut        ... 1.0000e-14
Partially contracted basis set               ... on
Rotationally invariant grid construction     ... off
Angular grids for H and He will be reduced by one unit

Total number of grid points                  ...    46278
Total number of batches                      ...      370
Average number of points per batch           ...      125
Average number of grid points per atom       ...     2722
UseSFitting                                  ... on
Initializing property integral containers    ... done (  0.0 sec)

SHARK setup successfully completed in   0.5 seconds

Maximum memory used throughout the entire STARTUP-calculation: 21.8 MB


           ************************************************************
           *        Program running with 8 parallel MPI-processes     *
           *              working on a common directory               *
           ************************************************************
-------------------------------------------------------------------------------
                                 ORCA GUESS
                   Start orbitals & Density for SCF / CASSCF
-------------------------------------------------------------------------------

------------
SCF SETTINGS
------------
Hamiltonian:
 Density Functional     Method          .... DFT(GTOs)
 Exchange Functional    Exchange        .... PBE
   PBE kappa parameter   XKappa         ....  0.804000
   PBE mue parameter    XMuePBE         ....  0.219520
 Correlation Functional Correlation     .... PBE
   PBE beta parameter  CBetaPBE         ....  0.066725
 LDA part of GGA corr.  LDAOpt          .... PW91-LDA
 Gradients option       PostSCFGGA      .... off
 Hybrid DFT is turned on
   Fraction HF Exchange ScalHFX         ....  0.250000
   Scaling of DF-GGA-X  ScalDFX         ....  0.750000
   Scaling of DF-GGA-C  ScalDFC         ....  1.000000
   Scaling of DF-LDA-C  ScalLDAC        ....  1.000000
   Perturbative correction              ....  0.000000
   NL short-range parameter             ....  6.900000
 RI-approximation to the Coulomb term is turned on
   Number of AuxJ basis functions       .... 491
   RIJ-COSX (HFX calculated with COS-X)).... on


General Settings:
 Integral files         IntName         .... 2fluorocyclohexanone_2
 Hartree-Fock type      HFTyp           .... RHF
 Total Charge           Charge          ....    0
 Multiplicity           Mult            ....    1
 Number of Electrons    NEL             ....   62
 Basis Dimension        Dim             ....  157
 Nuclear Repulsion      ENuc            ....    395.2930154991 Eh

Convergence Acceleration:
 AO-DIIS                CNVDIIS         .... on
   Start iteration      DIISMaxIt       ....    12
   Startup error        DIISStart       ....  0.200000
   # of expansion vecs  DIISMaxEq       ....     5
   Bias factor          DIISBfac        ....   1.050
   Max. coefficient     DIISMaxC        ....  10.000
 MO-DIIS                CNVKDIIS        .... off
 Trust-Rad. Augm. Hess. CNVTRAH         .... auto
   Auto Start mean grad. ratio tolernc. ....  1.125000
   Auto Start start iteration           ....    50
   Auto Start num. interpolation iter.  ....    10
   Max. Number of Micro iterations      ....    24
   Max. Number of Macro iterations      .... Maxiter - #DIIS iter
   Number of Davidson start vectors     ....     2
   Converg. threshold    (grad. norm)   ....   5.000e-05
   Grad. Scal. Fac. for Micro threshold ....   0.100
   Minimum threshold for Micro iter.    ....   1.000e-02
   NR start threshold (gradient norm)   ....   1.000e-04
   Initial trust radius                 ....   0.400
   Minimum AH scaling param. (alpha)    ....   1.000
   Maximum AH scaling param. (alpha)    .... 1000.000
   Quad. conv. algorithm                .... NR
   White noise on init. David. guess    .... on
   Maximum white noise                  ....   0.010
   Pseudo random numbers                .... off
   Inactive MOs                         .... canonical
   Orbital update algorithm             .... Taylor
   Preconditioner                       .... Diag
   Full preconditioner red. dimension   ....   250
 SOSCF                  CNVSOSCF        .... on
   Start iteration      SOSCFMaxIt      ....   150
   Startup grad/error   SOSCFStart      ....  0.003300
   Hessian update       SOSCFHessUp     .... L-BFGS
 Level Shifting         CNVShift        .... on
   Level shift para.    LevelShift      ....    0.2500
   Turn off err/grad.   ShiftErr        ....    0.0010
 Zerner damping         CNVZerner       .... off
 Static damping         CNVDamp         .... on
   Fraction old density DampFac         ....    0.7000
   Max. Damping (<1)    DampMax         ....    0.9800
   Min. Damping (>=0)   DampMin         ....    0.0000
   Turn off err/grad.   DampErr         ....    0.1000

SCF Procedure:
 Maximum # iterations   MaxIter         ....   125
 SCF integral mode      SCFMode         .... Direct
   Integral package                     .... SHARK and LIBINT hybrid scheme
 Reset frequency        DirectResetFreq ....    20
 Integral Threshold     Thresh          ....  1.000e-10 Eh
 Primitive CutOff       TCut            ....  1.000e-11 Eh

Convergence Tolerance:
 Convergence Check Mode ConvCheckMode   .... Total+1el-Energy
 Convergence forced     ConvForced      .... 1
 Energy Change          TolE            ....  1.000e-06 Eh
 1-El. energy change                    ....  1.000e-03 Eh
 Orbital Gradient       TolG            ....  5.000e-05
 Orbital Rotation angle TolX            ....  5.000e-05
 DIIS Error             TolErr          ....  1.000e-06

------------------------------
INITIAL GUESS: MODEL POTENTIAL
------------------------------
Loading Hartree-Fock densities                     ... done
Calculating cut-offs                               ... done
Initializing the effective Hamiltonian             ... done
Setting up the integral package (SHARK)            ... done
Starting the Coulomb interaction                   ... done (   0.0 sec)
Making the grid                                    ... done (   0.0 sec)
Mapping shells                                     ... done
Starting the XC term evaluation                    ... done (   0.0 sec)
  promolecular density results
     # of electrons  =     61.997355268
     EX              =    -51.492487661
     EC              =     -2.078087118
     EX+EC           =    -53.570574780
Transforming the Hamiltonian                       ... done (   0.0 sec)
Diagonalizing the Hamiltonian                      ... done (   0.0 sec)
Back transforming the eigenvectors                 ... done (   0.0 sec)
Now organizing SCF variables                       ... done
                      ------------------
                      INITIAL GUESS DONE (   0.1 sec)
                      ------------------
             **** ENERGY FILE WAS UPDATED (2fluorocyclohexanone_2.en.tmp) ****
Finished Guess after   0.1 sec
Maximum memory used throughout the entire GUESS-calculation: 12.1 MB


           ************************************************************
           *        Program running with 8 parallel MPI-processes     *
           *              working on a common directory               *
           ************************************************************

-------------------------------------------------------------------------------------------
                                      ORCA LEAN-SCF
                              memory conserving SCF solver
-------------------------------------------------------------------------------------------

----------------------------------------D-I-I-S--------------------------------------------
Iteration    Energy (Eh)           Delta-E    RMSDP     MaxDP     DIISErr   Damp  Time(sec)
-------------------------------------------------------------------------------------------
               ***  Starting incremental Fock matrix formation  ***
    1    -408.4771284189085350     0.00e+00  2.86e-03  8.25e-02  2.23e-01  0.700   0.2
    2    -408.5669210476038984    -8.98e-02  1.97e-03  4.88e-02  9.08e-02  0.700   0.1
                               ***Turning on AO-DIIS***
    3    -408.6023157455579735    -3.54e-02  8.41e-04  1.35e-02  3.30e-02  0.700   0.1
    4    -408.6238831323102545    -2.16e-02  1.39e-03  2.04e-02  1.66e-02  0.000   0.2
    5    -408.6711350768133002    -4.73e-02  2.47e-04  4.20e-03  4.67e-03  0.000   0.1
                              *** Initializing SOSCF ***
---------------------------------------S-O-S-C-F--------------------------------------
Iteration    Energy (Eh)           Delta-E    RMSDP     MaxDP     MaxGrad    Time(sec)
--------------------------------------------------------------------------------------
    6    -408.6713467851928385    -2.12e-04  7.85e-05  1.35e-03  1.03e-03     0.1
               *** Restarting incremental Fock matrix formation ***
    7    -408.6713341052185910     1.27e-05  5.04e-05  8.29e-04  1.66e-04     0.2
    8    -408.6713344444595464    -3.39e-07  1.63e-05  4.80e-04  2.02e-04     0.2
                 **** Energy Check signals convergence ****

               *****************************************************
               *                     SUCCESS                       *
               *           SCF CONVERGED AFTER   8 CYCLES          *
               *****************************************************

Recomputing exchange energy using gridx3       ... done (    0.338 sec)
Old exchange energy                            :    -13.167213456 Eh
New exchange energy                            :    -13.167226657 Eh
Exchange energy change after final integration :     -0.000013201 Eh
Total energy after final integration           :   -408.671347646 Eh
             **** ENERGY FILE WAS UPDATED (2fluorocyclohexanone_2.en.tmp) ****

----------------
TOTAL SCF ENERGY
----------------

Total Energy       :       -408.67134764562945 Eh          -11120.51273 eV

Components:
Nuclear Repulsion  :        395.29301549909934 Eh           10756.46980 eV
Electronic Energy  :       -803.96434994355889 Eh          -21876.98217 eV
One Electron Energy:      -1341.78783167533925 Eh          -36511.90313 eV
Two Electron Energy:        537.82348173178036 Eh           14634.92096 eV

Virial components:
Potential Energy   :       -815.07481627599122 Eh          -22179.31333 eV
Kinetic Energy     :        406.40346863036171 Eh           11058.80060 eV
Virial Ratio       :          2.00558036333428

DFT components:
N(Alpha)           :       30.999962452728 electrons
N(Beta)            :       30.999962452728 electrons
N(Total)           :       61.999924905456 electrons
E(X)               :      -39.363644518102 Eh       
E(C)               :       -2.084383246789 Eh       
E(XC)              :      -41.448027764890 Eh       

---------------
SCF CONVERGENCE
---------------

  Last Energy change         ...    3.3924e-07  Tolerance :   1.0000e-06
  Last MAX-Density change    ...    4.7954e-04  Tolerance :   1.0000e-05
  Last RMS-Density change    ...    1.6306e-05  Tolerance :   1.0000e-06
  Last DIIS Error            ...    1.0284e-03  Tolerance :   1.0000e-06
  Last Orbital Gradient      ...    2.0241e-04  Tolerance :   5.0000e-05
  Last Orbital Rotation      ...    1.5153e-04  Tolerance :   5.0000e-05


----------------
ORBITAL ENERGIES
----------------

  NO   OCC          E(Eh)            E(eV) 
   0   2.0000     -24.768855      -673.9948 
   1   2.0000     -19.221334      -523.0391 
   2   2.0000     -10.323567      -280.9185 
   3   2.0000     -10.311112      -280.5796 
   4   2.0000     -10.240701      -278.6637 
   5   2.0000     -10.239992      -278.6444 
   6   2.0000     -10.238078      -278.5923 
   7   2.0000     -10.236359      -278.5455 
   8   2.0000      -1.234150       -33.5829 
   9   2.0000      -1.062976       -28.9251 
  10   2.0000      -0.865326       -23.5467 
  11   2.0000      -0.786623       -21.4051 
  12   2.0000      -0.753431       -20.5019 
  13   2.0000      -0.655775       -17.8445 
  14   2.0000      -0.622986       -16.9523 
  15   2.0000      -0.568581       -15.4719 
  16   2.0000      -0.527214       -14.3462 
  17   2.0000      -0.507084       -13.7985 
  18   2.0000      -0.491414       -13.3721 
  19   2.0000      -0.475526       -12.9397 
  20   2.0000      -0.450123       -12.2485 
  21   2.0000      -0.442138       -12.0312 
  22   2.0000      -0.426296       -11.6001 
  23   2.0000      -0.410295       -11.1647 
  24   2.0000      -0.397560       -10.8182 
  25   2.0000      -0.378443       -10.2980 
  26   2.0000      -0.364588        -9.9209 
  27   2.0000      -0.347804        -9.4642 
  28   2.0000      -0.341012        -9.2794 
  29   2.0000      -0.331002        -9.0070 
  30   2.0000      -0.257309        -7.0017 
  31   0.0000      -0.032116        -0.8739 
  32   0.0000       0.088581         2.4104 
  33   0.0000       0.123742         3.3672 
  34   0.0000       0.138969         3.7815 
  35   0.0000       0.152240         4.1427 
  36   0.0000       0.154562         4.2058 
  37   0.0000       0.165925         4.5151 
  38   0.0000       0.173749         4.7280 
  39   0.0000       0.180316         4.9067 
  40   0.0000       0.185944         5.0598 
  41   0.0000       0.208044         5.6612 
*Only the first 10 virtual orbitals were printed.
------------------
MOLECULAR ORBITALS (RHF, ROHF)
------------------
                      0         1         2         3         4         5   
                 -24.76885 -19.22133 -10.32357 -10.31111 -10.24070 -10.23999
                   2.00000   2.00000   2.00000   2.00000   2.00000   2.00000
                  --------  --------  --------  --------  --------  --------
  0C   1s        -0.000066 -0.000020 -0.001222 -0.000460 -0.000365  0.049491
  0C   2s        -0.000667 -0.000329  0.000731 -0.001504  0.000430  0.000971
  0C   1pz        0.000094 -0.000060 -0.000189  0.000028  0.000131  0.000189
  0C   1px        0.000041 -0.000007 -0.000138  0.000126  0.000003 -0.000206
  0C   1py       -0.000180 -0.000018  0.000368 -0.000387 -0.000024 -0.000090
  0C   3s         0.001577  0.003129 -0.007058  0.006154 -0.003542  0.005637
  0C   2pz       -0.000735  0.000572  0.000342 -0.001339  0.000828 -0.001066
  0C   2px        0.000904  0.002097  0.000699 -0.000676 -0.000875  0.004185
  0C   2py        0.000403  0.002888 -0.004703  0.002379 -0.001680 -0.000105
  0C   1dz2      -0.000013 -0.000061 -0.000198 -0.000028 -0.000084  0.000310
  0C   1dxz       0.000014 -0.000203  0.000519  0.000067  0.000064  0.000471
  0C   1dyz      -0.000005 -0.000101 -0.000492 -0.000034  0.000069  0.000086
  0C   1dx2y2     0.000056 -0.000382  0.000217  0.000126  0.000079 -0.000646
  0C   1dxy       0.000015  0.000115 -0.000601  0.000015 -0.000054  0.000158
  1C   1s         0.000079 -0.000032  0.000265  0.000139 -0.020198  0.993678
  1C   2s         0.000530 -0.000269  0.001093  0.000658 -0.001942  0.037912
  1C   1pz       -0.000042  0.000051 -0.000152 -0.000140  0.000195 -0.000261
  1C   1px        0.000055  0.000099 -0.000429  0.000037 -0.000021 -0.000019
  1C   1py       -0.000136 -0.000034  0.000009 -0.000040 -0.000355 -0.000236
  1C   3s        -0.003928 -0.000183 -0.002719 -0.003810  0.004281 -0.033540
  1C   2pz       -0.000061 -0.001677  0.002217  0.000382 -0.000975 -0.000237
  1C   2px        0.000668 -0.000174  0.001927  0.001678 -0.001208  0.002536
  1C   2py       -0.000909  0.000341 -0.001206 -0.001876  0.001935 -0.003464
  1C   1dz2       0.000035 -0.000072  0.000103  0.000030 -0.000020  0.000562
  1C   1dxz      -0.000009  0.000090 -0.000077  0.000018  0.000019  0.000461
  1C   1dyz      -0.000025 -0.000034  0.000063 -0.000101 -0.000052 -0.000036
  1C   1dx2y2     0.000030 -0.000006 -0.000016  0.000051  0.000015 -0.000056
  1C   1dxy       0.000066 -0.000008  0.000070  0.000128 -0.000063 -0.000470
  2C   1s        -0.000081  0.000018 -0.000066 -0.000329  0.021026  0.026146
  2C   2s        -0.000762  0.000128 -0.000364 -0.001144 -0.000083  0.000048
  2C   1pz        0.000011  0.000032 -0.000032 -0.000008  0.000116  0.000043
  2C   1px        0.000212 -0.000027 -0.000043  0.000401  0.000213  0.000229
  2C   1py       -0.000038  0.000036 -0.000010 -0.000321 -0.000048  0.000184
  2C   3s         0.001915 -0.000268  0.002424  0.002771  0.006691  0.006618
  2C   2pz        0.000410  0.000332 -0.001266  0.000692 -0.001547  0.000896
  2C   2px       -0.001741  0.000580 -0.001954 -0.002529 -0.002537 -0.001679
  2C   2py       -0.001049  0.000219 -0.000711  0.000229  0.003335 -0.003900
  2C   1dz2      -0.000029 -0.000043  0.000039 -0.000038  0.000102  0.000443
  2C   1dxz      -0.000004  0.000009  0.000098 -0.000044 -0.000448 -0.000107
  2C   1dyz       0.000026 -0.000051  0.000094  0.000007  0.000501  0.000085
  2C   1dx2y2     0.000033 -0.000037  0.000127  0.000046  0.000133  0.000567
  2C   1dxy      -0.000006 -0.000006  0.000065  0.000019  0.000385 -0.000340
  3C   1s        -0.000050 -0.000007  0.000275  0.001327  0.995012  0.019406
  3C   2s        -0.000095 -0.000124  0.001085 -0.001107  0.038231 -0.000447
  3C   1pz        0.000186 -0.000045  0.000002 -0.000163 -0.000292 -0.000062
  3C   1px       -0.000465  0.000154 -0.000458  0.000104 -0.000060 -0.000146
  3C   1py        0.000071  0.000050 -0.000228  0.000144 -0.000002  0.000390
  3C   3s         0.002920 -0.001484 -0.001823  0.008712 -0.033832  0.003127
  3C   2pz        0.001615 -0.001383  0.000962  0.001239 -0.002902  0.000502
  3C   2px       -0.000491  0.000569  0.001026 -0.004762  0.001397 -0.000592
  3C   2py        0.000410 -0.000882  0.003073 -0.001117  0.003073 -0.002233
  3C   1dz2       0.000117 -0.000101  0.000124  0.000266  0.000266 -0.000033
  3C   1dxz      -0.000298  0.000118 -0.000082  0.000384 -0.000013 -0.000054
  3C   1dyz       0.000014 -0.000037  0.000092  0.000047  0.000462  0.000012
  3C   1dx2y2     0.000047 -0.000044  0.000039 -0.000486 -0.000493 -0.000060
  3C   1dxy      -0.000050  0.000037 -0.000117  0.000197  0.000476  0.000065
  4C   1s         0.000301 -0.000058 -0.007585  0.995520 -0.001414  0.000023
  4C   2s         0.001622 -0.000566  0.000641  0.038520 -0.001034  0.000444
  4C   1pz       -0.001047  0.000019  0.000126  0.001495  0.000026  0.000085
  4C   1px        0.000311 -0.000114  0.000083  0.000147 -0.000165 -0.000002
  4C   1py       -0.000837  0.000106 -0.000410  0.000599  0.000071  0.000063
  4C   3s        -0.012784  0.004334 -0.007029 -0.035945  0.007893 -0.003260
  4C   2pz       -0.006305  0.002195 -0.003020  0.001217 -0.001053 -0.000711
  4C   2px       -0.002469  0.003915 -0.001913 -0.002689  0.003311 -0.001586
  4C   2py        0.000155 -0.002113  0.002885  0.007328  0.000402  0.001290
  4C   1dz2      -0.000653  0.000073 -0.000561  0.000773  0.000282 -0.000033
  4C   1dxz       0.000052 -0.000026 -0.000084  0.000479  0.000513  0.000050
  4C   1dyz      -0.000698 -0.000114 -0.000114  0.000279  0.000013 -0.000104
  4C   1dx2y2     0.000173 -0.000169 -0.000434 -0.000168 -0.000564  0.000046
  4C   1dxy      -0.000091 -0.000321  0.000696 -0.000503 -0.000164  0.000112
  5C   1s        -0.000062  0.000271 -0.995341 -0.007634  0.000094  0.000004
  5C   2s        -0.000286  0.001146 -0.036472 -0.001486 -0.000979 -0.001013
  5C   1pz        0.000009 -0.000006  0.000517  0.000017  0.000058 -0.000115
  5C   1px        0.000060  0.000121  0.001210 -0.000100 -0.000187 -0.000259
  5C   1py        0.000385 -0.000023  0.000323 -0.000334 -0.000304  0.000256
  5C   3s         0.002523  0.007435  0.018103  0.009344  0.002604  0.003200
  5C   2pz        0.001715 -0.004248  0.004897 -0.002137  0.000265  0.000691
  5C   2px        0.001834 -0.012659  0.012830  0.001652  0.002136  0.002159
  5C   2py        0.001995 -0.003596  0.002845  0.008657  0.000510 -0.000403
  5C   1dz2      -0.000152  0.000073  0.000789  0.000334 -0.000102 -0.000121
  5C   1dxz       0.000087 -0.000232 -0.001042  0.000097 -0.000065 -0.000084
  5C   1dyz       0.000216 -0.000189 -0.000156  0.000066 -0.000073 -0.000022
  5C   1dx2y2    -0.000119 -0.000448 -0.001157  0.000570  0.000108  0.000101
  5C   1dxy       0.000099 -0.000269 -0.000763 -0.000292 -0.000013  0.000058
  6O   1s        -0.000015  0.995286 -0.000039  0.000000 -0.000008 -0.000006
  6O   2s        -0.000281  0.029498 -0.001484 -0.000199 -0.000127 -0.000118
  6O   1pz       -0.000021  0.000638  0.000278 -0.000052 -0.000063 -0.000060
  6O   1px       -0.000033  0.001941  0.000901 -0.000107  0.000041  0.000037
  6O   1py        0.000017  0.000523  0.000245  0.000026  0.000009 -0.000034
  6O   3s         0.001346 -0.023830  0.010709  0.000006  0.000835  0.000654
  6O   2pz        0.000006 -0.002230  0.001704  0.000488  0.000262  0.000176
  6O   2px        0.000395 -0.006579  0.005051  0.000104 -0.000032 -0.000111
  6O   2py       -0.000226 -0.001740  0.001450 -0.001357  0.000013  0.000214
  6O   1dz2      -0.000028  0.000096 -0.000778 -0.000037 -0.000000  0.000013
  6O   1dxz      -0.000012 -0.000186  0.001010  0.000172  0.000011 -0.000011
  6O   1dyz       0.000026 -0.000088  0.000207 -0.000148  0.000012 -0.000031
  6O   1dx2y2     0.000013 -0.000310  0.001287  0.000036 -0.000024 -0.000049
  6O   1dxy      -0.000040 -0.000163  0.000795 -0.000239 -0.000046  0.000042
  7F   1s        -0.995081  0.000011 -0.000018  0.000031  0.000006 -0.000010
  7F   2s        -0.027605  0.000293 -0.000039  0.000255 -0.000136 -0.000111
  7F   1pz        0.001304 -0.000013 -0.000017 -0.000081  0.000098  0.000007
  7F   1px       -0.000018  0.000055 -0.000112 -0.000054 -0.000162 -0.000007
  7F   1py        0.000707 -0.000053 -0.000195  0.000094  0.000023 -0.000015
  7F   3s         0.016183 -0.001247  0.001276  0.001020 -0.000363  0.000670
  7F   2pz       -0.004426  0.000298 -0.000499  0.001922  0.000033 -0.000229
  7F   2px        0.000233 -0.000484  0.000561  0.000425  0.000523  0.000141
  7F   2py       -0.002541  0.000384  0.000277  0.000052  0.000094 -0.000166
  7F   1dz2       0.000678  0.000030  0.000159 -0.001556 -0.000073  0.000027
  7F   1dxz      -0.000042  0.000123 -0.000088 -0.000114 -0.000254 -0.000043
  7F   1dyz       0.000776 -0.000091  0.000075 -0.001305  0.000046  0.000045
  7F   1dx2y2    -0.000218 -0.000047  0.000270  0.000275  0.000307  0.000000
  7F   1dxy      -0.000074  0.000042 -0.000221 -0.000107 -0.000054  0.000012
  8H   1s        -0.000058 -0.000112  0.000657 -0.000387  0.000261 -0.000524
  8H   2s        -0.000027 -0.000975 -0.000007 -0.000245 -0.000011  0.000449
  8H   1pz        0.000038  0.000043 -0.000008  0.000053 -0.000034  0.000128
  8H   1px       -0.000006 -0.000151  0.000199  0.000044  0.000046  0.000054
  8H   1py       -0.000072 -0.000054 -0.000088 -0.000170  0.000051  0.000024
  9H   1s        -0.000059  0.000060  0.000067 -0.000156  0.000010 -0.000421
  9H   2s         0.000335  0.001065 -0.001100  0.000745 -0.000303  0.000292
  9H   1pz        0.000042  0.000054  0.000017  0.000016 -0.000059 -0.000027
  9H   1px       -0.000057  0.000038 -0.000014  0.000004  0.000014 -0.000081
  9H   1py        0.000054 -0.000093  0.000090  0.000062  0.000026 -0.000141
 10H   1s         0.000184 -0.000079  0.000466  0.000339 -0.000308 -0.000595
 10H   2s         0.000280 -0.000898  0.000953  0.000017 -0.000724  0.004734
 10H   1pz        0.000019 -0.000014 -0.000030 -0.000015  0.000061 -0.001344
 10H   1px       -0.000020  0.000018 -0.000140 -0.000057  0.000059 -0.000168
 10H   1py        0.000037 -0.000063  0.000091  0.000085 -0.000157 -0.000305
 11H   1s         0.000145  0.000092 -0.000109 -0.000027 -0.000018 -0.000871
 11H   2s         0.000045  0.000658 -0.001434 -0.000433  0.001044  0.003479
 11H   1pz       -0.000000  0.000035 -0.000031  0.000058 -0.000043  0.000921
 11H   1px       -0.000032 -0.000011  0.000022 -0.000049 -0.000023  0.000843
 11H   1py        0.000026  0.000035 -0.000058  0.000041  0.000047 -0.000778
 12H   1s        -0.000122  0.000074 -0.000142 -0.000375 -0.000528 -0.000551
 12H   2s        -0.000226 -0.000323  0.000861 -0.000436  0.000141  0.000217
 12H   1pz        0.000006  0.000002 -0.000024  0.000009  0.000060  0.000098
 12H   1px        0.000095 -0.000000  0.000047  0.000166 -0.000034 -0.000007
 12H   1py        0.000050 -0.000001  0.000002 -0.000039  0.000075 -0.000021
 13H   1s         0.000033 -0.000003 -0.000022  0.000048 -0.000345 -0.000346
 13H   2s         0.000750 -0.000283  0.000221  0.001358  0.000256  0.000382
 13H   1pz        0.000036 -0.000024  0.000102  0.000011 -0.000070 -0.000083
 13H   1px       -0.000015  0.000004  0.000065 -0.000058  0.000099  0.000097
 13H   1py        0.000076 -0.000012  0.000052  0.000013 -0.000039  0.000013
 14H   1s        -0.000170  0.000102 -0.000168 -0.000310 -0.000812 -0.000061
 14H   2s        -0.000075  0.000469 -0.001502  0.000443  0.003597  0.001223
 14H   1pz       -0.000000  0.000051 -0.000036 -0.000005  0.000226  0.000004
 14H   1px       -0.000112  0.000002 -0.000011  0.000074  0.000527  0.000004
 14H   1py       -0.000008  0.000003  0.000030  0.000049  0.001347 -0.000016
 15H   1s         0.000066 -0.000001  0.000462 -0.000606 -0.000655 -0.000329
 15H   2s        -0.000153 -0.000820  0.000814  0.000173  0.004575 -0.000569
 15H   1pz       -0.000103 -0.000027  0.000024 -0.000052 -0.001278 -0.000111
 15H   1px        0.000071 -0.000008 -0.000091 -0.000074 -0.000116  0.000016
 15H   1py       -0.000018  0.000023 -0.000151  0.000039 -0.000645  0.000146
 16H   1s         0.000210  0.000182  0.000041 -0.000846 -0.000479 -0.000053
 16H   2s        -0.000491  0.001499 -0.001263  0.003150 -0.000175 -0.000390
 16H   1pz        0.000316  0.000032  0.000093 -0.001007 -0.000106 -0.000024
 16H   1px       -0.000034 -0.000002  0.000058 -0.000758 -0.000058  0.000019
 16H   1py        0.000225  0.000089  0.000008  0.000541  0.000038 -0.000026
                      6         7         8         9        10        11   
                 -10.23808 -10.23636  -1.23415  -1.06298  -0.86533  -0.78662
                   2.00000   2.00000   2.00000   2.00000   2.00000   2.00000
                  --------  --------  --------  --------  --------  --------
  0C   1s        -0.994212  0.009173 -0.002335  0.020333 -0.084401 -0.116010
  0C   2s        -0.038797 -0.000602  0.000769 -0.038017  0.154431  0.214134
  0C   1pz       -0.000300 -0.000048 -0.000238  0.013104 -0.024311 -0.014012
  0C   1px        0.000052 -0.000384 -0.000529  0.018836  0.031423  0.029299
  0C   1py       -0.000098 -0.000120  0.001528 -0.013207  0.029030 -0.002720
  0C   3s         0.038371  0.002724  0.008330 -0.007399  0.120910  0.201856
  0C   2pz       -0.003923  0.000179 -0.006667  0.003613 -0.003301 -0.006027
  0C   2px        0.000402  0.000949  0.004066  0.012290  0.006498  0.004246
  0C   2py        0.003876  0.002022  0.003067  0.011104  0.004450  0.004356
  0C   1dz2      -0.000301 -0.000061 -0.000140  0.000709 -0.001716 -0.001059
  0C   1dxz       0.000021 -0.000031  0.000205 -0.003121 -0.002583 -0.002208
  0C   1dyz      -0.000447 -0.000030 -0.000263  0.002107 -0.002419 -0.000057
  0C   1dx2y2     0.000522 -0.000083  0.000240 -0.001728  0.001767  0.003806
  0C   1dxy      -0.000436  0.000022 -0.000243  0.003440 -0.000265 -0.000742
  1C   1s         0.049304 -0.026286 -0.000362  0.004516 -0.099597 -0.092730
  1C   2s         0.002909 -0.001979  0.004437 -0.009135  0.180525  0.171909
  1C   1pz        0.000026 -0.000002 -0.000156 -0.000135  0.006072  0.023906
  1C   1px       -0.000227  0.000015 -0.000542  0.005643 -0.023560 -0.048225
  1C   1py        0.000093 -0.000218  0.000524 -0.001534  0.040882 -0.020693
  1C   3s        -0.010011  0.009124 -0.019279 -0.007611  0.144295  0.150990
  1C   2pz       -0.000591 -0.000917  0.001415 -0.009552 -0.001254  0.003171
  1C   2px        0.004791  0.001427  0.005579 -0.000681 -0.007483 -0.007240
  1C   2py       -0.000057  0.004209 -0.006617  0.000463  0.011172 -0.004285
  1C   1dz2      -0.000240  0.000429  0.000175  0.000204 -0.004172 -0.001083
  1C   1dxz      -0.000523  0.000076  0.000023  0.000672 -0.002314 -0.003205
  1C   1dyz      -0.000066 -0.000009 -0.000098 -0.000083 -0.000372  0.000356
  1C   1dx2y2     0.000516  0.000366  0.000098 -0.000462 -0.000294  0.005586
  1C   1dxy       0.000122 -0.000528  0.000202 -0.000039  0.001359  0.000091
  2C   1s         0.010659  0.994845 -0.002461  0.002115 -0.100784  0.016331
  2C   2s         0.001277  0.038256  0.000747 -0.004789  0.183066 -0.029986
  2C   1pz        0.000180  0.000228  0.000015  0.000250 -0.015642  0.030574
  2C   1px       -0.000181  0.000035 -0.001291  0.002590 -0.044913  0.013044
  2C   1py       -0.000295  0.000150  0.001090  0.000703 -0.012670 -0.075434
  2C   3s        -0.002706 -0.034777  0.007425 -0.000315  0.142928 -0.028323
  2C   2pz       -0.000558  0.001073 -0.000580  0.005154 -0.001011  0.004236
  2C   2px        0.001592  0.004821 -0.010129 -0.000809 -0.009078  0.000638
  2C   2py        0.000141  0.001216 -0.005352  0.001437 -0.002261 -0.012506
  2C   1dz2       0.000051  0.000383 -0.000243  0.000076 -0.003341 -0.001558
  2C   1dxz       0.000031 -0.000402  0.000138 -0.000138  0.002536 -0.003294
  2C   1dyz       0.000033  0.000370 -0.000093 -0.000075 -0.002433  0.002528
  2C   1dx2y2    -0.000028  0.000462  0.000046 -0.000241 -0.001572 -0.002862
  2C   1dxy      -0.000005  0.000013 -0.000292 -0.000149  0.000364  0.007145
  3C   1s         0.000247 -0.021582 -0.009494  0.003605 -0.096543  0.113267
  3C   2s        -0.000585 -0.001570  0.015027 -0.007702  0.176402 -0.210575
  3C   1pz        0.000130 -0.000193  0.009821 -0.000830  0.029023 -0.010415
  3C   1px       -0.000135  0.000039 -0.013195  0.004177 -0.009577  0.037696
  3C   1py        0.000045  0.000138  0.002353  0.002954 -0.035442 -0.007838
  3C   3s         0.003914  0.007118  0.021459 -0.007856  0.140273 -0.188454
  3C   2pz        0.001203  0.001183  0.012170 -0.006665  0.003362  0.001123
  3C   2px       -0.000855  0.003079 -0.005412  0.000825 -0.001094  0.005361
  3C   2py       -0.001914 -0.002920  0.002654 -0.006944 -0.009517 -0.000173
  3C   1dz2       0.000108  0.000074  0.000136  0.000044 -0.001727  0.001526
  3C   1dxz      -0.000092 -0.000326 -0.003612  0.000435  0.000106  0.001916
  3C   1dyz      -0.000085  0.000427  0.000427  0.000077 -0.003632 -0.000175
  3C   1dx2y2    -0.000019 -0.000155  0.002527 -0.000438  0.001580 -0.004299
  3C   1dxy       0.000089  0.000499 -0.000674  0.000135 -0.001818  0.000317
  4C   1s        -0.000103  0.000097 -0.062179  0.015795 -0.067642  0.092240
  4C   2s         0.001758 -0.001405  0.121090 -0.030919  0.130133 -0.179487
  4C   1pz        0.000105 -0.000027  0.088390  0.007455 -0.025928  0.051583
  4C   1px        0.000046 -0.000498  0.003756  0.014471  0.045277 -0.048702
  4C   1py       -0.000411  0.000125  0.039543  0.027551 -0.042744 -0.000899
  4C   3s        -0.008233  0.004892 -0.010153 -0.003507  0.095422 -0.158777
  4C   2pz       -0.001452  0.001834 -0.019768  0.009638 -0.012122  0.021488
  4C   2px       -0.000356  0.002848 -0.008746  0.017347  0.009516 -0.008428
  4C   2py        0.003675 -0.001887  0.005121 -0.000533 -0.013883  0.014469
  4C   1dz2      -0.000027  0.000033  0.013366  0.003664 -0.005162  0.003870
  4C   1dxz      -0.000006  0.000005 -0.000004  0.000269 -0.002238  0.002729
  4C   1dyz      -0.000120  0.000034  0.012994  0.000845 -0.002644  0.000553
  4C   1dx2y2    -0.000022 -0.000021 -0.003168  0.001620  0.001783 -0.005363
  4C   1dxy      -0.000101 -0.000018  0.000685 -0.004413 -0.000656 -0.000890
  5C   1s         0.001205  0.000040 -0.011164  0.116981 -0.041546 -0.008758
  5C   2s         0.000794  0.000444  0.017835 -0.218922  0.082225  0.014883
  5C   1pz        0.000152 -0.000049  0.002581  0.053426  0.027924  0.046400
  5C   1px        0.000149  0.000060  0.002350  0.156486  0.100842  0.028064
  5C   1py       -0.000245 -0.000066  0.014675  0.042681  0.019516 -0.096720
  5C   3s        -0.006661 -0.004041  0.023756 -0.073294  0.048943  0.020620
  5C   2pz       -0.002606 -0.000700  0.010208 -0.014917  0.008389  0.004545
  5C   2px       -0.002451 -0.002533  0.009689 -0.048185  0.024062  0.005832
  5C   2py        0.007912 -0.000736  0.016295 -0.011778  0.002316 -0.000465
  5C   1dz2      -0.000100  0.000058 -0.002300  0.009602 -0.001780  0.001313
  5C   1dxz       0.000346 -0.000127  0.000880 -0.013466 -0.000841  0.003131
  5C   1dyz      -0.000463 -0.000043  0.001571 -0.002980 -0.004247 -0.001670
  5C   1dx2y2    -0.000166 -0.000098 -0.002563 -0.017580 -0.005124  0.001551
  5C   1dxy      -0.000525 -0.000102  0.002536 -0.010327 -0.002569 -0.007592
  6O   1s        -0.000001 -0.000003 -0.004335  0.192791  0.040017  0.006866
  6O   2s         0.000180 -0.000001  0.008791 -0.419802 -0.092305 -0.015524
  6O   1pz        0.000039  0.000007  0.001637 -0.047022 -0.004166  0.010252
  6O   1px        0.000114 -0.000007  0.003757 -0.139997 -0.008545  0.003622
  6O   1py        0.000067 -0.000012  0.002365 -0.038529 -0.004300 -0.023204
  6O   3s         0.000449 -0.000398  0.012519 -0.413483 -0.081757 -0.017236
  6O   2pz        0.000327  0.000006 -0.000028 -0.019513 -0.000292  0.004563
  6O   2px        0.000271  0.000248  0.003005 -0.058213  0.001849  0.001677
  6O   2py       -0.001280  0.000107 -0.001950 -0.016349  0.000449 -0.011806
  6O   1dz2       0.000151 -0.000058 -0.000106  0.002754 -0.000513  0.000555
  6O   1dxz      -0.000014  0.000038  0.000034 -0.004964  0.000051  0.001440
  6O   1dyz       0.000033  0.000009  0.000172 -0.003227 -0.000341 -0.000648
  6O   1dx2y2     0.000162  0.000085  0.000354 -0.009981  0.000011  0.001168
  6O   1dxy      -0.000228  0.000049  0.000100 -0.005365 -0.000096 -0.002766
  7F   1s        -0.000024  0.000024 -0.223961 -0.014034  0.033389 -0.036266
  7F   2s        -0.000407  0.000415  0.475201  0.031004 -0.074561  0.081252
  7F   1pz        0.000004 -0.000016 -0.078783 -0.000033 -0.030802  0.068712
  7F   1px        0.000010  0.000043 -0.000182  0.002079  0.011863 -0.014077
  7F   1py        0.000071 -0.000013 -0.041271  0.003119 -0.023663  0.023296
  7F   3s         0.001701 -0.001780  0.526197  0.032434 -0.094577  0.109997
  7F   2pz       -0.000394  0.000452 -0.052609  0.001003 -0.016976  0.039209
  7F   2px        0.000007 -0.000439  0.000942 -0.001020  0.005261 -0.006717
  7F   2py       -0.000784  0.000467 -0.029346  0.000589 -0.011652  0.011860
  7F   1dz2      -0.000054  0.000018  0.009524 -0.000083  0.001565 -0.004178
  7F   1dxz      -0.000003  0.000130  0.000004  0.000180 -0.000772  0.001032
  7F   1dyz       0.000132 -0.000056  0.010426 -0.000262  0.002265 -0.003102
  7F   1dx2y2    -0.000047  0.000034 -0.003071 -0.000262 -0.000671  0.000164
  7F   1dxy      -0.000033  0.000031 -0.000093  0.000048 -0.000530  0.000331
  8H   1s         0.000553 -0.000277  0.000579 -0.007454  0.044162  0.068378
  8H   2s        -0.004552 -0.000767  0.003727 -0.002095  0.004064  0.016992
  8H   1pz       -0.001305  0.000067 -0.000164  0.000941 -0.004462 -0.006303
  8H   1px       -0.000054 -0.000139 -0.000023 -0.000384  0.000352  0.000279
  8H   1py       -0.000566 -0.000102 -0.000166  0.000200 -0.000495 -0.001624
  9H   1s         0.000605  0.000011  0.000214 -0.008782  0.036226  0.070029
  9H   2s        -0.003913  0.001094  0.002338  0.003129  0.003264  0.016622
  9H   1pz        0.000330 -0.000011  0.000216  0.000293  0.000302  0.000552
  9H   1px        0.000524  0.000033 -0.000111  0.000119  0.001830  0.002916
  9H   1py        0.001299  0.000006  0.000300 -0.001639  0.003508  0.005999
 10H   1s         0.000579 -0.000538  0.001102 -0.002632  0.050660  0.052428
 10H   2s         0.000264 -0.000119  0.001722 -0.004527  0.006532  0.009912
 10H   1pz       -0.000033 -0.000035  0.000051 -0.000246  0.004744  0.004822
 10H   1px        0.000059  0.000044 -0.000175  0.000140 -0.000180 -0.000550
 10H   1py        0.000043  0.000049  0.000250 -0.000271  0.002246  0.001270
 11H   1s         0.000264 -0.000334  0.000438 -0.000678  0.045674  0.056984
 11H   2s        -0.000071  0.000099 -0.001648  0.003817  0.008901  0.013802
 11H   1pz       -0.000010  0.000054  0.000052  0.000252 -0.002515 -0.002473
 11H   1px       -0.000049  0.000013 -0.000083  0.000046 -0.002957 -0.003709
 11H   1py       -0.000018 -0.000038  0.000085  0.000041  0.003008  0.002916
 12H   1s         0.000228 -0.000520  0.000616 -0.001163  0.050351 -0.008331
 12H   2s         0.000592  0.004604  0.003890 -0.003144  0.004034  0.002076
 12H   1pz        0.000041  0.001312 -0.000264  0.000146 -0.004773  0.001069
 12H   1px       -0.000124 -0.000151  0.000000  0.000135 -0.000880  0.000107
 12H   1py       -0.000076  0.000428  0.000147  0.000089 -0.001858 -0.000843
 13H   1s         0.000006 -0.000840  0.000659 -0.000317  0.046397 -0.010163
 13H   2s        -0.000834  0.003289  0.004473  0.001248  0.007581 -0.001761
 13H   1pz       -0.000018 -0.000746  0.000245 -0.000118  0.001779  0.000016
 13H   1px        0.000045  0.001280 -0.000164 -0.000040 -0.004646  0.000979
 13H   1py        0.000022 -0.000081  0.000234 -0.000044 -0.000051 -0.000842
 14H   1s        -0.000009 -0.000291  0.002534 -0.000167  0.043921 -0.069065
 14H   2s         0.000306 -0.000033  0.000878  0.004144  0.006305 -0.015979
 14H   1pz       -0.000082  0.000038  0.000166  0.000206  0.000049 -0.000017
 14H   1px        0.000032  0.000019 -0.000703 -0.000006 -0.001772  0.002908
 14H   1py        0.000016  0.000069 -0.000638  0.000078 -0.004336  0.005781
 15H   1s        -0.000293 -0.000461  0.002152 -0.002477  0.050883 -0.067546
 15H   2s         0.000021 -0.000038  0.000532 -0.004128  0.005116 -0.011844
 15H   1pz       -0.000051  0.000018  0.000054 -0.000321  0.005045 -0.005813
 15H   1px        0.000021  0.000041  0.000282  0.000085 -0.000080  0.000414
 15H   1py        0.000083 -0.000069  0.000111  0.000146  0.000968 -0.002046
 16H   1s         0.000113  0.000106  0.018319 -0.007205  0.028737 -0.060500
 16H   2s        -0.000939  0.001519 -0.000241  0.003798  0.002020 -0.013335
 16H   1pz       -0.000027  0.000025  0.004026 -0.000493  0.001421 -0.002704
 16H   1px       -0.000051  0.000033  0.002302 -0.000256  0.002067 -0.003784
 16H   1py        0.000025 -0.000047 -0.001178  0.001226 -0.001536  0.002803
                     12        13        14        15        16        17   
                  -0.75343  -0.65578  -0.62299  -0.56858  -0.52721  -0.50708
                   2.00000   2.00000   2.00000   2.00000   2.00000   2.00000
                  --------  --------  --------  --------  --------  --------
  0C   1s        -0.074817  0.083462  0.010640 -0.049941 -0.024890  0.012908
  0C   2s         0.140167 -0.160423 -0.021084  0.093898  0.052701 -0.023512
  0C   1pz       -0.007476 -0.025794  0.006398  0.114594  0.052475 -0.153273
  0C   1px       -0.052634  0.091974 -0.102133 -0.008549 -0.047399 -0.136132
  0C   1py        0.036932  0.005527  0.102254 -0.076592 -0.079370 -0.020792
  0C   3s         0.132234 -0.178772 -0.017738  0.140325  0.060227 -0.039055
  0C   2pz        0.000902 -0.005467  0.001457  0.042523  0.018945 -0.066007
  0C   2px       -0.005164  0.029349 -0.024879  0.000426 -0.024479 -0.058700
  0C   2py        0.004960 -0.001338  0.036832 -0.017219 -0.049017 -0.033337
  0C   1dz2       0.000429 -0.002045  0.000284  0.001137  0.001297 -0.002484
  0C   1dxz       0.002751 -0.004399  0.005505  0.001016  0.001693  0.001957
  0C   1dyz      -0.002479 -0.000432 -0.003986  0.006284  0.002980 -0.003334
  0C   1dx2y2    -0.004656  0.004048 -0.005617 -0.000646 -0.001389 -0.000957
  0C   1dxy      -0.004006  0.000540 -0.003131  0.004008  0.000793 -0.004520
  1C   1s         0.054460 -0.090839  0.079237  0.032354  0.019082 -0.005186
  1C   2s        -0.101390  0.173487 -0.151456 -0.060350 -0.038841  0.009542
  1C   1pz        0.016049 -0.019473  0.007956  0.095010  0.013387 -0.184074
  1C   1px       -0.073452  0.079154  0.034113  0.001875  0.035932  0.025762
  1C   1py       -0.047956 -0.005384  0.122750  0.006674 -0.023365 -0.045288
  1C   3s        -0.098292  0.183207 -0.178076 -0.094846 -0.030858  0.019440
  1C   2pz        0.000778 -0.007571  0.002861  0.040681  0.014467 -0.079217
  1C   2px       -0.013883  0.020133  0.014653  0.006865  0.016235  0.006213
  1C   2py       -0.008371 -0.000410  0.034387 -0.007469 -0.003131 -0.011648
  1C   1dz2       0.001105  0.001751 -0.005009 -0.002387 -0.000281  0.003118
  1C   1dxz      -0.002148  0.003881  0.000139 -0.002996 -0.001051  0.002775
  1C   1dyz       0.000373  0.000477  0.001416 -0.000031 -0.001827  0.000549
  1C   1dx2y2     0.007288 -0.003789 -0.004292  0.001010  0.001463  0.000696
  1C   1dxy      -0.004471 -0.000037  0.003278  0.004017  0.004635  0.002608
  2C   1s         0.119541 -0.010342 -0.101510 -0.040559 -0.024829  0.000048
  2C   2s        -0.222992  0.018832  0.194051  0.075306  0.053277 -0.000372
  2C   1pz        0.010102  0.038582  0.040336  0.087075 -0.032862 -0.147512
  2C   1px       -0.008921  0.022374  0.055391  0.063733  0.134365  0.068032
  2C   1py        0.013422 -0.120598  0.037586  0.045039  0.000879  0.000544
  2C   3s        -0.203798  0.024285  0.222656  0.118909  0.054689 -0.003815
  2C   2pz        0.005296  0.013090  0.017335  0.034634 -0.021247 -0.061172
  2C   2px       -0.002295  0.007174  0.009171  0.016247  0.072376  0.038949
  2C   2py        0.002349 -0.034542  0.011625  0.010955  0.007460 -0.002176
  2C   1dz2       0.000592 -0.002822  0.003182  0.002415  0.003226 -0.002062
  2C   1dxz      -0.000494 -0.002942 -0.002944 -0.004017 -0.002970 -0.000337
  2C   1dyz       0.000774  0.004296  0.002838  0.001522 -0.001002  0.000702
  2C   1dx2y2     0.002845 -0.003343  0.005179  0.000844  0.000963  0.000252
  2C   1dxy      -0.000435  0.006114 -0.000189 -0.001208  0.001025 -0.001006
  3C   1s         0.028198  0.093274  0.062300  0.029190  0.005740 -0.003434
  3C   2s        -0.050552 -0.177123 -0.118840 -0.052132 -0.011727  0.007621
  3C   1pz       -0.011733  0.023735  0.071380  0.093893 -0.135184 -0.046341
  3C   1px       -0.096819 -0.062199  0.079111  0.004632  0.062569  0.107012
  3C   1py        0.027460 -0.028263 -0.083263  0.072785  0.024749  0.012633
  3C   3s        -0.054393 -0.191625 -0.144731 -0.077318 -0.006969  0.023059
  3C   2pz       -0.006243  0.007083  0.018909  0.035199 -0.064367 -0.014547
  3C   2px       -0.014092 -0.013506  0.029533  0.012982  0.015076  0.046057
  3C   2py        0.006105 -0.007463 -0.023860  0.047421 -0.000205  0.002957
  3C   1dz2      -0.001394 -0.002409  0.000357 -0.001558 -0.002648 -0.000214
  3C   1dxz      -0.006276 -0.002641  0.004542 -0.001176  0.007934 -0.000956
  3C   1dyz       0.002556 -0.001385 -0.006126 -0.000805  0.003137  0.003095
  3C   1dx2y2     0.004365  0.003695  0.000190  0.003022  0.001498 -0.003736
  3C   1dxy       0.005239 -0.001297 -0.002326 -0.005158 -0.002320 -0.003464
  4C   1s        -0.095804 -0.080701  0.014136 -0.041201 -0.007571  0.015409
  4C   2s         0.191365  0.167579 -0.029555  0.092132  0.011070 -0.020202
  4C   1pz       -0.007811  0.015416  0.082593  0.088530 -0.195786  0.168710
  4C   1px       -0.037414 -0.121104 -0.077447 -0.005822 -0.233921 -0.038912
  4C   1py       -0.064345 -0.017933 -0.141606  0.212356  0.069909  0.102694
  4C   3s         0.161576  0.159620 -0.020738  0.087047  0.031138 -0.077339
  4C   2pz       -0.019139 -0.016741  0.030364  0.002350 -0.064444  0.032601
  4C   2px       -0.003051 -0.037434 -0.014787  0.000690 -0.100571 -0.024313
  4C   2py       -0.020190 -0.015588 -0.045344  0.053021  0.061734  0.051050
  4C   1dz2      -0.002371  0.001823 -0.000691  0.009296 -0.006973  0.011026
  4C   1dxz      -0.000579  0.002921  0.001474  0.004983 -0.003087 -0.002797
  4C   1dyz      -0.003427  0.000437 -0.003293  0.007444 -0.006121  0.010493
  4C   1dx2y2    -0.005661 -0.005601 -0.007082  0.002225 -0.002751 -0.004307
  4C   1dxy       0.001785  0.000036  0.001953 -0.002055 -0.004565  0.000191
  5C   1s        -0.081366 -0.003685 -0.078812  0.067686 -0.012260 -0.036934
  5C   2s         0.164404  0.009548  0.164227 -0.137613  0.027620  0.080588
  5C   1pz        0.046808 -0.058579  0.055743  0.047783 -0.035534  0.048361
  5C   1px        0.125130 -0.020597  0.067192 -0.062200 -0.065752 -0.023261
  5C   1py        0.055484  0.167547  0.043052 -0.050641  0.024550 -0.154293
  5C   3s         0.125826  0.005697  0.143316 -0.156049  0.037309  0.094554
  5C   2pz        0.018141 -0.007531  0.024923  0.012890 -0.013555  0.030588
  5C   2px        0.040218 -0.002609  0.033783 -0.050505 -0.017888  0.023363
  5C   2py        0.011412  0.029316  0.018011 -0.023176  0.017607 -0.035156
  5C   1dz2      -0.002188 -0.002819 -0.000110  0.000531  0.001523 -0.003457
  5C   1dxz      -0.000582 -0.002101  0.000762  0.001706 -0.000835 -0.000980
  5C   1dyz      -0.005663  0.002883 -0.000934  0.000500 -0.007076  0.004498
  5C   1dx2y2    -0.010793 -0.003454 -0.003917 -0.002103 -0.006169 -0.004146
  5C   1dxy      -0.002379  0.003459 -0.000223 -0.000894 -0.006321 -0.000679
  6O   1s         0.055704  0.002492  0.039686 -0.031596  0.031042  0.033829
  6O   2s        -0.130080 -0.006218 -0.093786  0.074527 -0.070808 -0.078840
  6O   1pz        0.005489 -0.021064  0.030360  0.008660  0.014820  0.078972
  6O   1px        0.012736 -0.006634  0.047629 -0.075155  0.073201  0.125440
  6O   1py        0.008221  0.060488  0.021648 -0.036079  0.056705 -0.061921
  6O   3s        -0.131081 -0.005592 -0.109183  0.093227 -0.117447 -0.115161
  6O   2pz        0.004220 -0.010268  0.016052  0.003365  0.006092  0.042801
  6O   2px        0.012160 -0.002376  0.028066 -0.040664  0.033575  0.067584
  6O   2py        0.006099  0.030321  0.011481 -0.018583  0.028528 -0.036862
  6O   1dz2      -0.001415 -0.001449 -0.001261  0.003436 -0.002734 -0.001127
  6O   1dxz       0.001550 -0.002238  0.003398  0.000244  0.001800  0.006631
  6O   1dyz       0.000051  0.001463  0.000877 -0.000169  0.000296 -0.000574
  6O   1dx2y2     0.000782 -0.002247  0.001968 -0.003469  0.001390  0.006784
  6O   1dxy       0.001416  0.005503  0.002259 -0.003367  0.003802 -0.004227
[...]
  0-1A  ->  6-1A    8.068799   65079.3   153.7   0.062939870   0.31839  -0.54158  -0.03541  -0.15436
  0-1A  ->  7-1A    8.255701   66586.7   150.2   0.002954045   0.01461   0.01316   0.11263  -0.04179
  0-1A  ->  8-1A    8.679253   70002.9   142.9   0.026581022   0.12501  -0.33758  -0.00984  -0.10464
  0-1A  ->  9-1A    8.803817   71007.6   140.8   0.009198028   0.04264  -0.14658  -0.12397  -0.07610
  0-1A  -> 10-1A    9.174002   73993.3   135.1   0.024650483   0.10968  -0.32681   0.03689  -0.03885
  0-1A  -> 11-1A    9.299448   75005.1   133.3   0.056197466   0.24666  -0.39998  -0.16957  -0.24067
  0-1A  -> 12-1A    9.670232   77995.7   128.2   0.021444425   0.09051   0.12812   0.27167  -0.01729
  0-1A  -> 13-1A    9.760028   78719.9   127.0   0.010990718   0.04596  -0.04872  -0.15354   0.14148
  0-1A  -> 14-1A    9.846988   79421.3   125.9   0.011932681   0.04946   0.12165   0.17279   0.06933
  0-1A  -> 15-1A    9.910356   79932.4   125.1   0.019863496   0.08181   0.06863  -0.23718   0.14438
  0-1A  -> 16-1A    9.918577   79998.7   125.0   0.038150207   0.15700   0.14353   0.35286  -0.10901
  0-1A  -> 17-1A   10.130422   81707.4   122.4   0.032063087   0.12919   0.31478  -0.14634   0.09321
  0-1A  -> 18-1A   10.157033   81922.0   122.1   0.004943170   0.01986  -0.05018  -0.11594   0.06249
  0-1A  -> 19-1A   10.385132   83761.7   119.4   0.009592164   0.03770  -0.16431  -0.08995   0.05109
  0-1A  -> 20-1A   10.525947   84897.5   117.8   0.006749391   0.02617  -0.01632  -0.11063  -0.11690
  0-1A  -> 21-1A   10.588792   85404.4   117.1   0.003840301   0.01480  -0.01539  -0.11561   0.03465
  0-1A  -> 22-1A   10.633260   85763.0   116.6   0.012382897   0.04753  -0.18824  -0.00088   0.10999
  0-1A  -> 23-1A   10.794817   87066.1   114.9   0.006345236   0.02399   0.04765  -0.12845   0.07227
  0-1A  -> 24-1A   10.985379   88603.1   112.9   0.070048325   0.26027  -0.48806   0.08679  -0.12056
  0-1A  -> 25-1A   11.052304   89142.9   112.2   0.004427316   0.01635  -0.00916   0.12149   0.03882

----------------------------------------------------------------------------------------------------
                     ABSORPTION SPECTRUM VIA TRANSITION VELOCITY DIPOLE MOMENTS    
----------------------------------------------------------------------------------------------------
     Transition      Energy     Energy  Wavelength fosc(P2)      P2        PX        PY        PZ   
                      (eV)      (cm-1)    (nm)                 (au**2)    (au)      (au)      (au)  
----------------------------------------------------------------------------------------------------
  0-1A  ->  1-1A    3.809118   30722.6   325.5   0.000055728   0.00001   0.00266   0.00120   0.00179
  0-1A  ->  2-1A    6.671300   53807.7   185.8   0.010010450   0.00368  -0.05955  -0.00691   0.00932
  0-1A  ->  3-1A    6.873140   55435.6   180.4   0.007460705   0.00283  -0.04728  -0.02128   0.01179
  0-1A  ->  4-1A    7.413427   59793.3   167.2   0.010468084   0.00428   0.04323  -0.02339   0.04315
  0-1A  ->  5-1A    7.985822   64410.0   155.3   0.011526000   0.00507   0.05213  -0.04421   0.02004
  0-1A  ->  6-1A    8.068799   65079.3   153.7   0.057038516   0.02537   0.15530   0.01167   0.03341
  0-1A  ->  7-1A    8.255701   66586.7   150.2   0.001646205   0.00075  -0.00649  -0.02064   0.01677
  0-1A  ->  8-1A    8.679253   70002.9   142.9   0.022475477   0.01075   0.09641   0.00417   0.03797
  0-1A  ->  9-1A    8.803817   71007.6   140.8   0.009080572   0.00441   0.03993   0.04222   0.03210
  0-1A  -> 10-1A    9.174002   73993.3   135.1   0.023545786   0.01191   0.10860  -0.00930   0.00513
  0-1A  -> 11-1A    9.299448   75005.1   133.3   0.051734977   0.02652   0.13029   0.05262   0.08231
  0-1A  -> 12-1A    9.670232   77995.7   128.2   0.020897279   0.01114  -0.04479  -0.09490   0.01130
  0-1A  -> 13-1A    9.760028   78719.9   127.0   0.009668368   0.00520   0.02232   0.05199  -0.04472
  0-1A  -> 14-1A    9.846988   79421.3   125.9   0.012938464   0.00702  -0.04640  -0.06325  -0.02949
  0-1A  -> 15-1A    9.910356   79932.4   125.1   0.015110082   0.00825  -0.02641   0.07285  -0.04744
  0-1A  -> 16-1A    9.918577   79998.7   125.0   0.034168568   0.01868  -0.04529  -0.12004   0.04712
  0-1A  -> 17-1A   10.130422   81707.4   122.4   0.034993075   0.01954  -0.12481   0.05199  -0.03549
  0-1A  -> 18-1A   10.157033   81922.0   122.1   0.007302391   0.00409   0.01301   0.05649  -0.02698
  0-1A  -> 19-1A   10.385132   83761.7   119.4   0.009533012   0.00546   0.06347   0.03384  -0.01684
  0-1A  -> 20-1A   10.525947   84897.5   117.8   0.006692859   0.00388   0.00982   0.04204   0.04494
  0-1A  -> 21-1A   10.588792   85404.4   117.1   0.003060974   0.00179   0.00760   0.03777  -0.01739
  0-1A  -> 22-1A   10.633260   85763.0   116.6   0.014085920   0.00826   0.07477   0.00094  -0.05162
  0-1A  -> 23-1A   10.794817   87066.1   114.9   0.006387463   0.00380  -0.01782   0.05485  -0.02179
  0-1A  -> 24-1A   10.985379   88603.1   112.9   0.064557466   0.03909   0.18629  -0.03995   0.05286
  0-1A  -> 25-1A   11.052304   89142.9   112.2   0.003906692   0.00238   0.00642  -0.04379  -0.02052

------------------------------------------------------------------------------------------
                     CD SPECTRUM VIA TRANSITION ELECTRIC DIPOLE MOMENTS    
------------------------------------------------------------------------------------------
     Transition      Energy     Energy  Wavelength    R        MX        MY        MZ   
                      (eV)      (cm-1)    (nm)   (1e40*cgs)   (au)      (au)      (au)  
------------------------------------------------------------------------------------------
  0-1A  ->  1-1A    3.809118   30722.6   325.5   -3.74761  -0.47249  -0.16907  -0.20073
  0-1A  ->  2-1A    6.671300   53807.7   185.8   -4.49906   0.03841  -0.05223  -0.02054
  0-1A  ->  3-1A    6.873140   55435.6   180.4    9.80629  -0.00803  -0.08985   0.17431
  0-1A  ->  4-1A    7.413427   59793.3   167.2    8.72091   0.06928   0.14716   0.12831
  0-1A  ->  5-1A    7.985822   64410.0   155.3  -23.53316  -0.11336   0.23345   0.09705
  0-1A  ->  6-1A    8.068799   65079.3   153.7   11.41344   0.01719   0.03149   0.08930
  0-1A  ->  7-1A    8.255701   66586.7   150.2   -4.28156  -0.04559   0.12776   0.11267
  0-1A  ->  8-1A    8.679253   70002.9   142.9   18.51884   0.09075  -0.10827   0.09280
  0-1A  ->  9-1A    8.803817   71007.6   140.8   23.32159   0.05129   0.47049  -0.21516
  0-1A  -> 10-1A    9.174002   73993.3   135.1   -2.47469  -0.03091  -0.14359  -0.01147
  0-1A  -> 11-1A    9.299448   75005.1   133.3  -11.95178  -0.03403  -0.14520   0.05353
  0-1A  -> 12-1A    9.670232   77995.7   128.2   10.06985  -0.10791  -0.02990  -0.03407
  0-1A  -> 13-1A    9.760028   78719.9   127.0    0.43010   0.17741  -0.18341  -0.14440
  0-1A  -> 14-1A    9.846988   79421.3   125.9  -20.08951   0.14703   0.05895   0.20971
  0-1A  -> 15-1A    9.910356   79932.4   125.1    5.99098   0.17187  -0.04529  -0.24409
  0-1A  -> 16-1A    9.918577   79998.7   125.0    6.59678  -0.02819   0.03155   0.19337
  0-1A  -> 17-1A   10.130422   81707.4   122.4    5.73356  -0.06615  -0.12736  -0.10704
  0-1A  -> 18-1A   10.157033   81922.0   122.1    1.28133   0.00049  -0.23239  -0.47424
  0-1A  -> 19-1A   10.385132   83761.7   119.4  -10.76876  -0.25045   0.11614  -0.15391
  0-1A  -> 20-1A   10.525947   84897.5   117.8   -1.39992  -0.04356   0.07245  -0.08789
  0-1A  -> 21-1A   10.588792   85404.4   117.1  -13.48697  -0.20518  -0.28839  -0.22775
  0-1A  -> 22-1A   10.633260   85763.0   116.6    4.90498   0.18964  -0.45792   0.22630
  0-1A  -> 23-1A   10.794817   87066.1   114.9    0.67899   0.08215   0.01363  -0.04987
  0-1A  -> 24-1A   10.985379   88603.1   112.9    7.72183   0.00647  -0.03223   0.08647
  0-1A  -> 25-1A   11.052304   89142.9   112.2   -1.12671  -0.24324   0.04117  -0.12471

------------------------------------------------------------------------------------------
                     CD SPECTRUM VIA TRANSITION VELOCITY DIPOLE MOMENTS    
------------------------------------------------------------------------------------------
     Transition      Energy     Energy  Wavelength    R        MX        MY        MZ   
                      (eV)      (cm-1)    (nm)   (1e40*cgs)   (au)      (au)      (au)  
------------------------------------------------------------------------------------------
  0-1A  ->  1-1A    3.809118   30722.6   325.5   -6.12056  -0.47249  -0.16907  -0.20073
  0-1A  ->  2-1A    6.671300   53807.7   185.8   -4.07268   0.03841  -0.05223  -0.02054
  0-1A  ->  3-1A    6.873140   55435.6   180.4    8.11355  -0.00803  -0.08985   0.17431
  0-1A  ->  4-1A    7.413427   59793.3   167.2    8.80561   0.06928   0.14716   0.12831
  0-1A  ->  5-1A    7.985822   64410.0   155.3  -22.94946  -0.11336   0.23345   0.09705
  0-1A  ->  6-1A    8.068799   65079.3   153.7    9.57249   0.01719   0.03149   0.08930
  0-1A  ->  7-1A    8.255701   66586.7   150.2   -0.70242  -0.04559   0.12776   0.11267
  0-1A  ->  8-1A    8.679253   70002.9   142.9   17.47156   0.09075  -0.10827   0.09280
  0-1A  ->  9-1A    8.803817   71007.6   140.8   21.86219   0.05129   0.47049  -0.21516
  0-1A  -> 10-1A    9.174002   73993.3   135.1   -2.90925  -0.03091  -0.14359  -0.01147
  0-1A  -> 11-1A    9.299448   75005.1   133.3  -10.58000  -0.03403  -0.14520   0.05353
  0-1A  -> 12-1A    9.670232   77995.7   128.2    9.66601  -0.10791  -0.02990  -0.03407
  0-1A  -> 13-1A    9.760028   78719.9   127.0    1.15819   0.17741  -0.18341  -0.14440
  0-1A  -> 14-1A    9.846988   79421.3   125.9  -21.80332   0.14703   0.05895   0.20971
  0-1A  -> 15-1A    9.910356   79932.4   125.1    4.84189   0.17187  -0.04529  -0.24409
  0-1A  -> 16-1A    9.918577   79998.7   125.0    8.53700  -0.02819   0.03155   0.19337
  0-1A  -> 17-1A   10.130422   81707.4   122.4    6.88013  -0.06615  -0.12736  -0.10704
  0-1A  -> 18-1A   10.157033   81922.0   122.1   -0.40979   0.00049  -0.23239  -0.47424
  0-1A  -> 19-1A   10.385132   83761.7   119.4  -11.58297  -0.25045   0.11614  -0.15391
  0-1A  -> 20-1A   10.525947   84897.5   117.8   -1.62298  -0.04356   0.07245  -0.08789
  0-1A  -> 21-1A   10.588792   85404.4   117.1  -10.28755  -0.20518  -0.28839  -0.22775
  0-1A  -> 22-1A   10.633260   85763.0   116.6    2.49137   0.18964  -0.45792   0.22630
  0-1A  -> 23-1A   10.794817   87066.1   114.9    0.43976   0.08215   0.01363  -0.04987
  0-1A  -> 24-1A   10.985379   88603.1   112.9    8.24813   0.00647  -0.03223   0.08647
  0-1A  -> 25-1A   11.052304   89142.9   112.2   -0.93486  -0.24324   0.04117  -0.12471

Total run time:        6.570 sec

           *** ORCA-CIS/TD-DFT FINISHED WITHOUT ERROR ***
-----------------------
CIS/TD-DFT TOTAL ENERGY
-----------------------

    E(SCF)  =   -408.671347646 Eh
    DE(CIS) =      0.139982515 Eh (Root  1)
    ----------------------------- ---------
    E(tot)  =   -408.531365131 Eh


Maximum memory used throughout the entire CIS-calculation: 159.9 MB
=> NOW LEAVING ORCA_CIS

-------------------------   --------------------
FINAL SINGLE POINT ENERGY      -408.531365130660
-------------------------   --------------------



           ************************************************************
           *        Program running with 8 parallel MPI-processes     *
           *              working on a common directory               *
           ************************************************************

------------------------------------------------------------------------------
                              ORCA PROPERTY CALCULATIONS
------------------------------------------------------------------------------

GBWName                                 ... 2fluorocyclohexanone_2.gbw
Number of atoms                         ...     17
Number of basis functions               ...    157
Max core memory                         ...   1024 MB

Electric properties:
Dipole moment                           ... YES
Quadrupole moment                       ...  NO
Static polarizability (Dipole/Dipole)   ...  NO
Static polarizability (Dipole/Quad.)    ...  NO
Static polarizability (Quad./Quad.)     ...  NO
Static polarizability (Velocity)        ...  NO

Atomic electric properties:
Dipole moment                           ...  NO
Quadrupole moment                       ...  NO
Static polarizability                   ...  NO

Choice of electric origin               ... Center of mass
Position of electric origin             ...    -0.140453     0.066678     0.035188

General magnetic properties:
Magnetizability                         ...  NO

EPR properties:
g-Tensor (aka g-matrix)                 ...  NO
Zero-Field splitting spin-orbit         ...  NO
Zero-field splitting spin-spin          ...  NO
Hyperfine couplings                     ...  NO (   0 nuclei)
Quadrupole couplings                    ...  NO (   0 nuclei)
Contact density                         ...  NO (   0 nuclei)

NMR properties:
Chemical shifts                         ...  NO (   0 nuclei)
Spin-rotation constants                 ...  NO (   0 nuclei)
Spin-spin couplings                     ...  NO (   0 nuclei,    0 pairs)

Choice of magnetic origin               ... GIAO
Position of magnetic origin             ...     0.000000     0.000000     0.000000

Properties with geometric perturbations:
SCF Hessian                             ...  NO
IR spectrum                             ...  NO
VCD spectrum                            ...  NO
X-ray spectroscopy properties:
SCF XES/XAS/RIXS spectra                ...  NO


-------------
DIPOLE MOMENT
-------------

Method             : SCF
Type of density    : Electron Density
Multiplicity       :   1
Irrep              :   0
Energy             :  -408.6713476456294529 Eh
Relativity type    : 
Basis              : AO
                                X                 Y                 Z
Electronic contribution:     -7.521920924       4.067871180       2.065056604
Nuclear contribution   :      8.707506696      -4.133455725      -2.182209545
                        -----------------------------------------
Total Dipole Moment    :      1.185585771      -0.065584545      -0.117152941
                        -----------------------------------------
Magnitude (a.u.)       :      1.193163763
Magnitude (Debye)      :      3.032781266



--------------------
Rotational spectrum 
--------------------
 
Rotational constants in cm-1:             0.085522             0.072773             0.049769 
Rotational constants in MHz :          2563.894250          2181.684561          1492.042349 

Dipole components along the rotational axes: 
x,y,z [a.u.] :     1.180047    -0.128307    -0.121099 
x,y,z [Debye]:     2.999442    -0.326131    -0.307810 

 

Dipole moment calculation done in   0.0 sec 

Maximum memory used throughout the entire PROP-calculation: 7.7 MB

--------------------------------
SUGGESTED CITATIONS FOR THIS RUN
--------------------------------

Below you find a list of papers that are relevant to this ORCA run
We neither can nor want to force you to cite these papers, but we appreciate if you do
You receive ORCA, which is the product of decades of hard work by many enthusiastic individuals, for free
The only thing we kindly ask in return is that you cite our papers,
We deeply appreciate it, if you show your appreciation for ORCA by not just citing the generic ORCA reference.

Please note that relegating all ORCA citations to the supporting information does *not* help us.
SI sections are not indexed - citations you put there will not count into any citation statistics
But we need these citations in order to attract the funding resources that allow us to do what we are doing

Therefore, if you are a happy ORCA user, please consider citing a few of the papers listed below in the main body of your paper

In addition to the list printed below, the program has created the file 2fluorocyclohexanone_2.bibtex that contains the list in bibtex format
You can import this file easily into all common literature databanks and citation aid programs


List of essential papers. We consider these as the minimum necessary citations

  1. Neese,F.
     Software update: the ORCA program system, version 5.0
     WIRES Comput. Molec. Sci., 2022 12(1)e1606
     doi.org/10.1002/wcms.1606

List of papers to cite with high priority. The work reported in these papers was absolutely
necessary for this run to complete.
Our perspective: the developers of density functionals and basis sets usually get cited in chemistry papers
Good! But without the algorithms to do something with them, the functionals or basis sets would not do anything.
Hence, in our opinion, the algorithm design and method developments papers are equally worthy of getting cited

  1. Neese,F.; Olbrich,G.
     Efficient use of the resolution of the identity approximation in time-dependent density functional calculations with hybrid density functionals
     Chem. Phys. Lett., 2002 362 170-178
     doi.org/10.1016/s0009-2614(02)01053-9
  2. Neese,F.
     An improvement of the resolution of the identity approximation for the formation of the Coulomb matrix
     J. Comp. Chem., 2003 24(14)1740-1747
     doi.org/10.1002/jcc.10318
  3. Neese,F.; Wennmohs,F.; Hansen,A.; Becker,U.
     Efficient, approximate and parallel Hartree-Fock and hybrid DFT calculations. A 'chain-of-spheres' algorithm for the Hartree-Fock exchange
     Chem. Phys., 2009 356(1-3)98-109
     doi.org/10.1016/j.chemphys.2008.10.036
  4. Helmich-Paris,B.; de Souza,B.; Neese,F.; Izsák,R.
     An improved chain of spheres for exchange algorithm
     J. Chem. Phys., 2021 155 104109
     doi.org/doi: 10.1063/5.0058766.
  5. Neese,F.
     The SHARK Integral Generation and Digestion System
     J. Comp. Chem., 2022  1-16
     doi.org/10.1002/jcc.26942

List of suggested additional citations. These are papers that are important in the 'surrounding' of 
of this run, or papers that preceded the highly important papers. If you like your results we are grateful for a citation.

  1. Izsak,R.; Neese,F.
     An overlap fitted chain of spheres exchange method
     J. Chem. Phys., 2011 135 144105
     doi.org/10.1063/1.3646921
  2. Izsak,R.; Hansen,A.; Neese,F.
     The resolution of identity and chain of spheres approximations for the LPNO-CCSD singles Fock term
     Molec. Phys., 2012 110 2413-2417
     doi.org/10.1080/00268976.2012.687466
  3. Neese,F.
     The ORCA program system
     WIRES Comput. Molec. Sci., 2012 2(1)73-78
     doi.org/10.1002/wcms.81
  4. Izsak,R.; Neese,F.; Klopper,W.
     Robust fitting techniques in the chain of spheres approximation to the Fock exchange: The role of the complementary space
     J. Chem. Phys., 2013 139 
     doi.org/10.1063/1.4819264
  5. Neese,F.
     Software update: the ORCA program system, version 4.0
     WIRES Comput. Molec. Sci., 2018 8(1)1-6
     doi.org/10.1002/wcms.1327
  6. Neese,F.; Wennmohs,F.; Becker,U.; Riplinger,C.
     The ORCA quantum chemistry program package
     J. Chem. Phys., 2020 152 Art. No. L224108
     doi.org/10.1063/5.0004608

List of optional additional citations

  1. Neese,F.
     Approximate second-order SCF convergence for spin unrestricted wavefunctions
     Chem. Phys. Lett., 2000 325(1-3)93-98
     doi.org/10.1016/s0009-2614(00)00662-x

Timings for individual modules:

Sum of individual times          ...        9.693 sec (=   0.162 min)
Startup calculation              ...        0.581 sec (=   0.010 min)   6.0 %
SCF iterations                   ...        2.111 sec (=   0.035 min)  21.8 %
Property integrals               ...        0.154 sec (=   0.003 min)   1.6 %
Property calculations            ...        0.156 sec (=   0.003 min)   1.6 %
CIS module                       ...        6.691 sec (=   0.112 min)  69.0 %
                             ****ORCA TERMINATED NORMALLY****
TOTAL RUN TIME: 0 days 0 hours 0 minutes 9 seconds 851 msec
