 Entering Gaussian System, Link 0=g09
 Initial command:
 /home/anv/software/gaussian09/g09/l1.exe /scratch/local/2fluorocyclohexanone/2fluorocyclohexanone_3/Gau-10142.inp -scrdir=/scratch/local/2fluorocyclohexanone/2fluorocyclohexanone_3/
 Entering Link 1 = /home/anv/software/gaussian09/g09/l1.exe PID=     10144.
  
 Copyright (c) 1988,1990,1992,1993,1995,1998,2003,2009,2011,
            Gaussian, Inc.  All Rights Reserved.
  
 This is part of the Gaussian(R) 09 program.  It is based on
 the Gaussian(R) 03 system (copyright 2003, Gaussian, Inc.),
 the Gaussian(R) 98 system (copyright 1998, Gaussian, Inc.),
 the Gaussian(R) 94 system (copyright 1995, Gaussian, Inc.),
 the Gaussian 92(TM) system (copyright 1992, Gaussian, Inc.),
 the Gaussian 90(TM) system (copyright 1990, Gaussian, Inc.),
 the Gaussian 88(TM) system (copyright 1988, Gaussian, Inc.),
 the Gaussian 86(TM) system (copyright 1986, Carnegie Mellon
 University), and the Gaussian 82(TM) system (copyright 1983,
 Carnegie Mellon University). Gaussian is a federally registered
 trademark of Gaussian, Inc.
  
 This software contains proprietary and confidential information,
 including trade secrets, belonging to Gaussian, Inc.
  
 This software is provided under written license and may be
 used, copied, transmitted, or stored only in accord with that
 written license.
  
 The following legend is applicable only to US Government
 contracts under FAR:
  
                    RESTRICTED RIGHTS LEGEND
  
 Use, reproduction and disclosure by the US Government is
 subject to restrictions as set forth in subparagraphs (a)
 and (c) of the Commercial Computer Software - Restricted
 Rights clause in FAR 52.227-19.
  
 Gaussian, Inc.
 340 Quinnipiac St., Bldg. 40, Wallingford CT 06492
  
  
 ---------------------------------------------------------------
 Warning -- This program may not be used in any manner that
 competes with the business of Gaussian, Inc. or will provide
 assistance to any competitor of Gaussian, Inc.  The licensee
 of this program is prohibited from giving any competitor of
 Gaussian, Inc. access to this program.  By using this program,
 the user acknowledges that Gaussian, Inc. is engaged in the
 business of creating and licensing software in the field of
 computational chemistry and represents and warrants to the
 licensee that it is not a competitor of Gaussian, Inc. and that
 it will not use this program in any manner prohibited above.
 ---------------------------------------------------------------
  

 Cite this work as:
 Gaussian 09, Revision C.01,
 M. J. Frisch, G. W. Trucks, H. B. Schlegel, G. E. Scuseria, 
 M. A. Robb, J. R. Cheeseman, G. Scalmani, V. Barone, B. Mennucci, 
 G. A. Petersson, H. Nakatsuji, M. Caricato, X. Li, H. P. Hratchian, 
 A. F. Izmaylov, J. Bloino, G. Zheng, J. L. Sonnenberg, M. Hada, 
 M. Ehara, K. Toyota, R. Fukuda, J. Hasegawa, M. Ishida, T. Nakajima, 
 Y. Honda, O. Kitao, H. Nakai, T. Vreven, J. A. Montgomery, Jr., 
 J. E. Peralta, F. Ogliaro, M. Bearpark, J. J. Heyd, E. Brothers, 
 K. N. Kudin, V. N. Staroverov, T. Keith, R. Kobayashi, J. Normand, 
 K. Raghavachari, A. Rendell, J. C. Burant, S. S. Iyengar, J. Tomasi, 
 M. Cossi, N. Rega, J. M. Millam, M. Klene, J. E. Knox, J. B. Cross, 
 V. Bakken, C. Adamo, J. Jaramillo, R. Gomperts, R. E. Stratmann, 
 O. Yazyev, A. J. Austin, R. Cammi, C. Pomelli, J. W. Ochterski, 
 R. L. Martin, K. Morokuma, V. G. Zakrzewski, G. A. Voth, 
 P. Salvador, J. J. Dannenberg, S. Dapprich, A. D. Daniels, 
 O. Farkas, J. B. Foresman, J. V. Ortiz, J. Cioslowski, 
 and D. J. Fox, Gaussian, Inc., Wallingford CT, 2010.
 
 ******************************************
 Gaussian 09:  EM64L-G09RevC.01 23-Sep-2011
                20-Nov-2023 
 ******************************************
 %chk=2fluorocyclohexanone_3
 %mem=8192mb
 %nproc=6
 Will use up to    6 processors via shared memory.
 ---------------------------------------------------
 #N PBE1PBE 6-31G** td=(nstates=25) gfinput pop=full
 ---------------------------------------------------
 1/38=1/1;
 2/12=2,17=6,18=5,40=1/2;
 3/5=1,6=6,7=101,11=2,16=1,24=10,25=1,30=1,74=-13/1,2,8,3;
 4//1;
 5/5=2,38=5/2;
 8/6=1,10=2,108=25/1;
 9/41=25,42=1/14;
 6/7=3/1;
 99/5=1,9=1/99;
 -----------------------------------------------
 2fluorocyclohexanone/2fluorocyclohexanone_3.dat
 -----------------------------------------------
 Charge =  0 Multiplicity = 1
 Symbolic Z-Matrix:
 6                     0.        0.        0. 
 6                     1.5225    0.        0. 
 6                     2.1036    1.4153    0. 
 6                     1.2412    2.4278   -0.7545 
 6                     0.3901    1.7797   -1.8356 
 6                    -0.5314    0.7393   -1.2128 
 8                    -1.6643    0.5088   -1.652 
 9                    -0.3174    2.7666   -2.4692 
 1                    -0.3875    0.4891    0.8998 
 1                    -0.3687   -1.0305   -0.0292 
 1                     1.881    -0.5288   -0.8928 
 1                     1.9025   -0.5547    0.8652 
 1                     2.2336    1.7632    1.0319 
 1                     3.1077    1.3824   -0.44 
 1                     0.5801    2.9383   -0.0417 
 1                     1.8716    3.2135   -1.1863 
 1                     1.0139    1.2869   -2.5883 
 
                          Input orientation:                          
 ---------------------------------------------------------------------
 Center     Atomic      Atomic             Coordinates (Angstroms)
 Number     Number       Type             X           Y           Z
 ---------------------------------------------------------------------
      1          6           0        0.000000    0.000000    0.000000
      2          6           0        1.522500    0.000000    0.000000
      3          6           0        2.103600    1.415300    0.000000
      4          6           0        1.241200    2.427800   -0.754500
      5          6           0        0.390100    1.779700   -1.835600
      6          6           0       -0.531400    0.739300   -1.212800
      7          8           0       -1.664300    0.508800   -1.652000
      8          9           0       -0.317400    2.766600   -2.469200
      9          1           0       -0.387500    0.489100    0.899800
     10          1           0       -0.368700   -1.030500   -0.029200
     11          1           0        1.881000   -0.528800   -0.892800
     12          1           0        1.902500   -0.554700    0.865200
     13          1           0        2.233600    1.763200    1.031900
     14          1           0        3.107700    1.382400   -0.440000
     15          1           0        0.580100    2.938300   -0.041700
     16          1           0        1.871600    3.213500   -1.186300
     17          1           0        1.013900    1.286900   -2.588300
 ---------------------------------------------------------------------
                    Distance matrix (angstroms):
                    1          2          3          4          5
     1  C    0.000000
     2  C    1.522500   0.000000
     3  C    2.535391   1.529951   0.000000
     4  C    2.829145   2.557853   1.529104   0.000000
     5  C    2.586298   2.796263   2.537380   1.520915   0.000000
     6  C    1.516520   2.497189   2.978437   2.490619   1.522982
     7  O    2.399557   3.625421   4.212828   3.595831   2.422696
     8  F    3.721796   4.139596   3.712708   2.341840   1.369663
     9  H    1.094995   2.167247   2.805898   3.024554   3.122935
    10  H    1.094862   2.153931   3.477795   3.882998   3.425797
    11  H    2.148228   1.097836   2.150853   3.028193   2.905310
    12  H    2.162353   1.095748   2.160998   3.457752   3.876996
    13  H    3.026989   2.163182   1.096701   2.148901   3.409006
    14  H    3.429640   2.148834   1.096768   2.162312   3.080730
    15  H    2.995307   3.086011   2.154604   1.098065   2.143952
    16  H    3.903431   3.443220   2.166715   1.095984   2.161531
    17  H    3.063234   2.934976   2.811268   2.171668   1.094776
                    6          7          8          9         10
     6  C    0.000000
     7  O    1.236725   0.000000
     8  F    2.394636   2.753110   0.000000
     9  H    2.132226   2.853470   4.067196   0.000000
    10  H    2.135316   2.584860   4.513779   1.781173   0.000000
    11  H    2.744112   3.771227   4.263527   3.065229   2.461434
    12  H    3.452012   4.493261   5.203577   2.516906   2.486903
    13  H    3.705708   4.895964   4.446585   2.917353   3.962658
    14  H    3.775427   5.000410   4.214851   3.848308   4.251611
    15  H    2.728096   3.678705   2.593789   2.796650   4.080656
    16  H    3.449170   4.476033   2.576291   4.108248   4.936533
    17  H    2.140051   2.941913   1.994005   3.842818   3.718994
                   11         12         13         14         15
    11  H    0.000000
    12  H    1.758322   0.000000
    13  H    3.013646   2.347355   0.000000
    14  H    2.315709   2.628386   1.753724   0.000000
    15  H    3.799670   3.843470   2.295112   2.994700   0.000000
    16  H    3.753803   4.290564   2.674851   2.331916   1.747517
    17  H    2.631226   4.013448   3.849724   3.001385   3.066020
                   16         17
    16  H    0.000000
    17  H    2.532398   0.000000
 Stoichiometry    C6H9FO
 Framework group  C1[X(C6H9FO)]
 Deg. of freedom    45
 Full point group                 C1      NOp   1
 Largest Abelian subgroup         C1      NOp   1
 Largest concise Abelian subgroup C1      NOp   1
                         Standard orientation:                         
 ---------------------------------------------------------------------
 Center     Atomic      Atomic             Coordinates (Angstroms)
 Number     Number       Type             X           Y           Z
 ---------------------------------------------------------------------
      1          6           0        0.717147    1.417435   -0.299707
      2          6           0        1.802550    0.596490    0.382903
      3          6           0        1.782561   -0.869957   -0.052853
      4          6           0        0.381318   -1.390709   -0.374560
      5          6           0       -0.708287   -0.634203    0.369510
      6          6           0       -0.653286    0.843101    0.003420
      7          8           0       -1.667160    1.548147   -0.063345
      8          9           0       -1.915010   -1.191850    0.039621
      9          1           0        0.858209    1.419691   -1.385576
     10          1           0        0.752076    2.449615    0.063758
     11          1           0        1.657409    0.643709    1.470078
     12          1           0        2.789222    1.027963    0.180487
     13          1           0        2.419176   -1.003540   -0.935820
     14          1           0        2.231037   -1.478364    0.741886
     15          1           0        0.202846   -1.298223   -1.454070
     16          1           0        0.317378   -2.462819   -0.156219
     17          1           0       -0.586997   -0.729503    1.453365
 ---------------------------------------------------------------------
 Rotational constants (GHZ):      2.8617875      2.0337864      1.2866944
 Standard basis: 6-31G(d,p) (6D, 7F)
 AO basis set in the form of general basis input (Overlap normalization):
      1 0
 S   6 1.00       0.000000000000
      0.3047524880D+04  0.1834737132D-02
      0.4573695180D+03  0.1403732281D-01
      0.1039486850D+03  0.6884262226D-01
      0.2921015530D+02  0.2321844432D+00
      0.9286662960D+01  0.4679413484D+00
      0.3163926960D+01  0.3623119853D+00
 SP   3 1.00       0.000000000000
      0.7868272350D+01 -0.1193324198D+00  0.6899906659D-01
      0.1881288540D+01 -0.1608541517D+00  0.3164239610D+00
      0.5442492580D+00  0.1143456438D+01  0.7443082909D+00
 SP   1 1.00       0.000000000000
      0.1687144782D+00  0.1000000000D+01  0.1000000000D+01
 D   1 1.00       0.000000000000
      0.8000000000D+00  0.1000000000D+01
 ****
      2 0
 S   6 1.00       0.000000000000
      0.3047524880D+04  0.1834737132D-02
      0.4573695180D+03  0.1403732281D-01
      0.1039486850D+03  0.6884262226D-01
      0.2921015530D+02  0.2321844432D+00
      0.9286662960D+01  0.4679413484D+00
      0.3163926960D+01  0.3623119853D+00
 SP   3 1.00       0.000000000000
      0.7868272350D+01 -0.1193324198D+00  0.6899906659D-01
      0.1881288540D+01 -0.1608541517D+00  0.3164239610D+00
      0.5442492580D+00  0.1143456438D+01  0.7443082909D+00
 SP   1 1.00       0.000000000000
      0.1687144782D+00  0.1000000000D+01  0.1000000000D+01
 D   1 1.00       0.000000000000
      0.8000000000D+00  0.1000000000D+01
 ****
      3 0
 S   6 1.00       0.000000000000
      0.3047524880D+04  0.1834737132D-02
      0.4573695180D+03  0.1403732281D-01
      0.1039486850D+03  0.6884262226D-01
      0.2921015530D+02  0.2321844432D+00
      0.9286662960D+01  0.4679413484D+00
      0.3163926960D+01  0.3623119853D+00
 SP   3 1.00       0.000000000000
      0.7868272350D+01 -0.1193324198D+00  0.6899906659D-01
      0.1881288540D+01 -0.1608541517D+00  0.3164239610D+00
      0.5442492580D+00  0.1143456438D+01  0.7443082909D+00
 SP   1 1.00       0.000000000000
      0.1687144782D+00  0.1000000000D+01  0.1000000000D+01
 D   1 1.00       0.000000000000
      0.8000000000D+00  0.1000000000D+01
 ****
      4 0
 S   6 1.00       0.000000000000
      0.3047524880D+04  0.1834737132D-02
      0.4573695180D+03  0.1403732281D-01
      0.1039486850D+03  0.6884262226D-01
      0.2921015530D+02  0.2321844432D+00
      0.9286662960D+01  0.4679413484D+00
      0.3163926960D+01  0.3623119853D+00
 SP   3 1.00       0.000000000000
      0.7868272350D+01 -0.1193324198D+00  0.6899906659D-01
      0.1881288540D+01 -0.1608541517D+00  0.3164239610D+00
      0.5442492580D+00  0.1143456438D+01  0.7443082909D+00
 SP   1 1.00       0.000000000000
      0.1687144782D+00  0.1000000000D+01  0.1000000000D+01
 D   1 1.00       0.000000000000
      0.8000000000D+00  0.1000000000D+01
 ****
      5 0
 S   6 1.00       0.000000000000
      0.3047524880D+04  0.1834737132D-02
      0.4573695180D+03  0.1403732281D-01
      0.1039486850D+03  0.6884262226D-01
      0.2921015530D+02  0.2321844432D+00
      0.9286662960D+01  0.4679413484D+00
      0.3163926960D+01  0.3623119853D+00
 SP   3 1.00       0.000000000000
      0.7868272350D+01 -0.1193324198D+00  0.6899906659D-01
      0.1881288540D+01 -0.1608541517D+00  0.3164239610D+00
      0.5442492580D+00  0.1143456438D+01  0.7443082909D+00
 SP   1 1.00       0.000000000000
      0.1687144782D+00  0.1000000000D+01  0.1000000000D+01
 D   1 1.00       0.000000000000
      0.8000000000D+00  0.1000000000D+01
 ****
      6 0
 S   6 1.00       0.000000000000
      0.3047524880D+04  0.1834737132D-02
      0.4573695180D+03  0.1403732281D-01
      0.1039486850D+03  0.6884262226D-01
      0.2921015530D+02  0.2321844432D+00
      0.9286662960D+01  0.4679413484D+00
      0.3163926960D+01  0.3623119853D+00
 SP   3 1.00       0.000000000000
      0.7868272350D+01 -0.1193324198D+00  0.6899906659D-01
      0.1881288540D+01 -0.1608541517D+00  0.3164239610D+00
      0.5442492580D+00  0.1143456438D+01  0.7443082909D+00
 SP   1 1.00       0.000000000000
      0.1687144782D+00  0.1000000000D+01  0.1000000000D+01
 D   1 1.00       0.000000000000
      0.8000000000D+00  0.1000000000D+01
 ****
      7 0
 S   6 1.00       0.000000000000
      0.5484671660D+04  0.1831074430D-02
      0.8252349460D+03  0.1395017220D-01
      0.1880469580D+03  0.6844507810D-01
      0.5296450000D+02  0.2327143360D+00
      0.1689757040D+02  0.4701928980D+00
      0.5799635340D+01  0.3585208530D+00
 SP   3 1.00       0.000000000000
      0.1553961625D+02 -0.1107775495D+00  0.7087426823D-01
      0.3599933586D+01 -0.1480262627D+00  0.3397528391D+00
      0.1013761750D+01  0.1130767015D+01  0.7271585773D+00
 SP   1 1.00       0.000000000000
      0.2700058226D+00  0.1000000000D+01  0.1000000000D+01
 D   1 1.00       0.000000000000
      0.8000000000D+00  0.1000000000D+01
 ****
      8 0
 S   6 1.00       0.000000000000
      0.7001713090D+04  0.1819616901D-02
      0.1051366090D+04  0.1391607961D-01
      0.2392856900D+03  0.6840532453D-01
      0.6739744530D+02  0.2331857601D+00
      0.2151995730D+02  0.4712674392D+00
      0.7403101300D+01  0.3566185462D+00
 SP   3 1.00       0.000000000000
      0.2084795280D+02 -0.1085069751D+00  0.7162872424D-01
      0.4808308340D+01 -0.1464516581D+00  0.3459121027D+00
      0.1344069860D+01  0.1128688581D+01  0.7224699564D+00
 SP   1 1.00       0.000000000000
      0.3581513930D+00  0.1000000000D+01  0.1000000000D+01
 D   1 1.00       0.000000000000
      0.8000000000D+00  0.1000000000D+01
 ****
      9 0
 S   3 1.00       0.000000000000
      0.1873113696D+02  0.3349460434D-01
      0.2825394365D+01  0.2347269535D+00
      0.6401216923D+00  0.8137573261D+00
 S   1 1.00       0.000000000000
      0.1612777588D+00  0.1000000000D+01
 P   1 1.00       0.000000000000
      0.1100000000D+01  0.1000000000D+01
 ****
     10 0
 S   3 1.00       0.000000000000
      0.1873113696D+02  0.3349460434D-01
      0.2825394365D+01  0.2347269535D+00
      0.6401216923D+00  0.8137573261D+00
 S   1 1.00       0.000000000000
      0.1612777588D+00  0.1000000000D+01
 P   1 1.00       0.000000000000
      0.1100000000D+01  0.1000000000D+01
 ****
     11 0
 S   3 1.00       0.000000000000
      0.1873113696D+02  0.3349460434D-01
      0.2825394365D+01  0.2347269535D+00
      0.6401216923D+00  0.8137573261D+00
 S   1 1.00       0.000000000000
      0.1612777588D+00  0.1000000000D+01
 P   1 1.00       0.000000000000
      0.1100000000D+01  0.1000000000D+01
 ****
     12 0
 S   3 1.00       0.000000000000
      0.1873113696D+02  0.3349460434D-01
      0.2825394365D+01  0.2347269535D+00
      0.6401216923D+00  0.8137573261D+00
 S   1 1.00       0.000000000000
      0.1612777588D+00  0.1000000000D+01
 P   1 1.00       0.000000000000
      0.1100000000D+01  0.1000000000D+01
 ****
     13 0
 S   3 1.00       0.000000000000
      0.1873113696D+02  0.3349460434D-01
      0.2825394365D+01  0.2347269535D+00
      0.6401216923D+00  0.8137573261D+00
 S   1 1.00       0.000000000000
      0.1612777588D+00  0.1000000000D+01
 P   1 1.00       0.000000000000
      0.1100000000D+01  0.1000000000D+01
 ****
     14 0
 S   3 1.00       0.000000000000
      0.1873113696D+02  0.3349460434D-01
      0.2825394365D+01  0.2347269535D+00
      0.6401216923D+00  0.8137573261D+00
 S   1 1.00       0.000000000000
      0.1612777588D+00  0.1000000000D+01
 P   1 1.00       0.000000000000
      0.1100000000D+01  0.1000000000D+01
 ****
     15 0
 S   3 1.00       0.000000000000
      0.1873113696D+02  0.3349460434D-01
      0.2825394365D+01  0.2347269535D+00
      0.6401216923D+00  0.8137573261D+00
 S   1 1.00       0.000000000000
      0.1612777588D+00  0.1000000000D+01
 P   1 1.00       0.000000000000
      0.1100000000D+01  0.1000000000D+01
 ****
     16 0
 S   3 1.00       0.000000000000
      0.1873113696D+02  0.3349460434D-01
      0.2825394365D+01  0.2347269535D+00
      0.6401216923D+00  0.8137573261D+00
 S   1 1.00       0.000000000000
      0.1612777588D+00  0.1000000000D+01
 P   1 1.00       0.000000000000
      0.1100000000D+01  0.1000000000D+01
 ****
     17 0
 S   3 1.00       0.000000000000
      0.1873113696D+02  0.3349460434D-01
      0.2825394365D+01  0.2347269535D+00
      0.6401216923D+00  0.8137573261D+00
 S   1 1.00       0.000000000000
      0.1612777588D+00  0.1000000000D+01
 P   1 1.00       0.000000000000
      0.1100000000D+01  0.1000000000D+01
 ****

 There are   165 symmetry adapted basis functions of A   symmetry.
 Integral buffers will be    131072 words long.
 Raffenetti 2 integral format.
 Two-electron integral symmetry is turned on.
   165 basis functions,   287 primitive gaussians,   165 cartesian basis functions
    31 alpha electrons       31 beta electrons
       nuclear repulsion energy       391.7230740008 Hartrees.
 NAtoms=   17 NActive=   17 NUniq=   17 SFac= 1.00D+00 NAtFMM=   60 NAOKFM=F Big=F
 One-electron integrals computed using PRISM.
 NBasis=   165 RedAO= T  NBF=   165
 NBsUse=   165 1.00D-06 NBFU=   165
 Harris functional with IExCor= 1009 diagonalized for initial guess.
 ExpMin= 1.61D-01 ExpMax= 7.00D+03 ExpMxC= 1.05D+03 IAcc=1 IRadAn=         1 AccDes= 0.00D+00
 HarFok:  IExCor= 1009 AccDes= 0.00D+00 IRadAn=         1 IDoV= 1
 ScaDFX=  1.000000  1.000000  1.000000  1.000000
 FoFCou: FMM=F IPFlag=           0 FMFlag=      100000 FMFlg1=           0
         NFxFlg=           0 DoJE=T BraDBF=F KetDBF=T FulRan=T
         Omega=  0.000000  0.000000  1.000000  0.000000  0.000000 ICntrl=     500 IOpCl=  0
         NMat0=    1 NMatS0=    1 NMatT0=    0 NMatD0=    1 NMtDS0=    0 NMtDT0=    0
         I1Cent=           4 NGrid=           0.
 Petite list used in FoFCou.
 Initial guess orbital symmetries:
       Occupied  (A) (A) (A) (A) (A) (A) (A) (A) (A) (A) (A) (A)
                 (A) (A) (A) (A) (A) (A) (A) (A) (A) (A) (A) (A)
                 (A) (A) (A) (A) (A) (A) (A)
       Virtual   (A) (A) (A) (A) (A) (A) (A) (A) (A) (A) (A) (A)
                 (A) (A) (A) (A) (A) (A) (A) (A) (A) (A) (A) (A)
                 (A) (A) (A) (A) (A) (A) (A) (A) (A) (A) (A) (A)
                 (A) (A) (A) (A) (A) (A) (A) (A) (A) (A) (A) (A)
                 (A) (A) (A) (A) (A) (A) (A) (A) (A) (A) (A) (A)
                 (A) (A) (A) (A) (A) (A) (A) (A) (A) (A) (A) (A)
                 (A) (A) (A) (A) (A) (A) (A) (A) (A) (A) (A) (A)
                 (A) (A) (A) (A) (A) (A) (A) (A) (A) (A) (A) (A)
                 (A) (A) (A) (A) (A) (A) (A) (A) (A) (A) (A) (A)
                 (A) (A) (A) (A) (A) (A) (A) (A) (A) (A) (A) (A)
                 (A) (A) (A) (A) (A) (A) (A) (A) (A) (A) (A) (A)
                 (A) (A)
 The electronic state of the initial guess is 1-A.
 Requested convergence on RMS density matrix=1.00D-08 within 128 cycles.
 Requested convergence on MAX density matrix=1.00D-06.
 Requested convergence on             energy=1.00D-06.
 No special actions if energy rises.
 Keep R1 ints in memory in canonical form, NReq=96313583.
 Integral accuracy reduced to 1.0D-05 until final iterations.
 Initial convergence to 1.0D-05 achieved.  Increase integral accuracy.
 SCF Done:  E(RPBE1PBE) =  -408.669296356     A.U. after   14 cycles
             Convg  =    0.3338D-08             -V/T =  2.0079
 ExpMin= 1.61D-01 ExpMax= 7.00D+03 ExpMxC= 1.05D+03 IAcc=3 IRadAn=         5 AccDes= 0.00D+00
 HarFok:  IExCor=  205 AccDes= 0.00D+00 IRadAn=         5 IDoV=-2
 ScaDFX=  1.000000  1.000000  1.000000  1.000000
 Range of M.O.s used for correlation:     9   165
 NBasis=   165 NAE=    31 NBE=    31 NFC=     8 NFV=     0
 NROrb=    157 NOA=    23 NOB=    23 NVA=   134 NVB=   134
 Orbital symmetries:
       Occupied  (A) (A) (A) (A) (A) (A) (A) (A) (A) (A) (A) (A)
                 (A) (A) (A) (A) (A) (A) (A) (A) (A) (A) (A) (A)
                 (A) (A) (A) (A) (A) (A) (A)
       Virtual   (A) (A) (A) (A) (A) (A) (A) (A) (A) (A) (A) (A)
                 (A) (A) (A) (A) (A) (A) (A) (A) (A) (A) (A) (A)
                 (A) (A) (A) (A) (A) (A) (A) (A) (A) (A) (A) (A)
                 (A) (A) (A) (A) (A) (A) (A) (A) (A) (A) (A) (A)
                 (A) (A) (A) (A) (A) (A) (A) (A) (A) (A) (A) (A)
                 (A) (A) (A) (A) (A) (A) (A) (A) (A) (A) (A) (A)
                 (A) (A) (A) (A) (A) (A) (A) (A) (A) (A) (A) (A)
                 (A) (A) (A) (A) (A) (A) (A) (A) (A) (A) (A) (A)
                 (A) (A) (A) (A) (A) (A) (A) (A) (A) (A) (A) (A)
                 (A) (A) (A) (A) (A) (A) (A) (A) (A) (A) (A) (A)
                 (A) (A) (A) (A) (A) (A) (A) (A) (A) (A) (A) (A)
                 (A) (A)
   100 initial guesses have been made.
 Convergence on wavefunction:    0.001000000000000
 Iteration     1 Dimension   100 NMult   100
 CISAX will form   100 AO SS matrices at one time.
 New state      2 was old state      3
 New state      3 was old state      2
 New state      7 was old state      9
 New state      9 was old state     10
 New state     10 was old state     13
 New state     12 was old state     14
 New state     13 was old state     18
 New state     14 was old state     12
 New state     15 was old state     16
 New state     16 was old state     15
 New state     17 was old state     22
 New state     18 was old state     17
 New state     19 was old state     20
 New state     20 was old state     21
 New state     21 was old state     19
 New state     22 was old state     25
 No map to state     24
 New state     25 was old state     24
 Iteration     2 Dimension   150 NMult   150
 New state     12 was old state     13
 New state     13 was old state     12
 Iteration     3 Dimension   200 NMult   200
 Iteration     4 Dimension   248 NMult   248
 Iteration     5 Dimension   252 NMult   252
 ***********************************************************************
 Excited states from <AA,BB:AA,BB> singles matrix:
 ***********************************************************************
 
 Ground to excited state transition densities written to RWF  633
 Ground to excited state transition electric dipole moments (Au):
       state          X           Y           Z        Dip. S.      Osc.
         1         0.0298     -0.0053     -0.0083      0.0010      0.0001
         2        -0.1828      0.1835      0.0044      0.0671      0.0114
         3         0.1158     -0.1796      0.0581      0.0490      0.0086
         4        -0.2926     -0.0343      0.0649      0.0910      0.0174
         5         0.0692      0.0695     -0.1048      0.0206      0.0040
         6        -0.1308      0.2263     -0.0982      0.0780      0.0154
         7        -0.0072      0.1674     -0.0456      0.0302      0.0062
         8        -0.1936     -0.0187      0.1118      0.0503      0.0106
         9        -0.4441      0.1650      0.0516      0.2271      0.0490
        10        -0.0001     -0.1620      0.1041      0.0371      0.0081
        11         0.2563     -0.2770     -0.0040      0.1424      0.0315
        12         0.2129     -0.1183      0.1008      0.0695      0.0158
        13         0.0713      0.0106     -0.0651      0.0094      0.0022
        14        -0.0147      0.0042     -0.0601      0.0039      0.0009
        15         0.0503      0.0826     -0.0076      0.0094      0.0023
        16         0.0691     -0.3330      0.0312      0.1166      0.0283
        17         0.1057     -0.3327      0.0116      0.1220      0.0301
        18         0.3934      0.1795      0.0346      0.1882      0.0470
        19        -0.2219      0.0104      0.1061      0.0606      0.0153
        20         0.0564      0.1047      0.0195      0.0145      0.0037
        21         0.0456     -0.0039     -0.1793      0.0342      0.0087
        22        -0.1031      0.2628      0.0418      0.0814      0.0208
        23         0.2960      0.2855      0.0156      0.1694      0.0440
        24        -0.1666      0.2125     -0.0346      0.0741      0.0195
        25        -0.0717      0.0674     -0.1529      0.0331      0.0087
 Ground to excited state transition velocity dipole moments (Au):
       state          X           Y           Z        Dip. S.      Osc.
         1        -0.0017      0.0008     -0.0003      0.0000      0.0000
         2         0.0491     -0.0454     -0.0035      0.0045      0.0117
         3        -0.0352      0.0453     -0.0068      0.0033      0.0085
         4         0.0812      0.0063     -0.0103      0.0067      0.0156
         5        -0.0156     -0.0206      0.0430      0.0025      0.0058
         6         0.0329     -0.0576      0.0164      0.0047      0.0105
         7         0.0055     -0.0500      0.0077      0.0026      0.0056
         8         0.0590      0.0081     -0.0341      0.0047      0.0100
         9         0.1384     -0.0524     -0.0200      0.0223      0.0459
        10         0.0012      0.0486     -0.0422      0.0042      0.0084
        11        -0.0754      0.0928     -0.0059      0.0143      0.0288
        12        -0.0690      0.0349     -0.0343      0.0072      0.0140
        13        -0.0376     -0.0021      0.0256      0.0021      0.0039
        14         0.0011     -0.0029      0.0232      0.0005      0.0010
        15        -0.0211     -0.0217      0.0017      0.0009      0.0017
        16        -0.0335      0.1246     -0.0101      0.0167      0.0306
        17        -0.0411      0.1222     -0.0048      0.0167      0.0300
        18        -0.1477     -0.0701     -0.0003      0.0267      0.0476
        19         0.0855      0.0014     -0.0427      0.0091      0.0161
        20        -0.0190     -0.0476     -0.0186      0.0030      0.0052
        21        -0.0115      0.0031      0.0657      0.0045      0.0078
        22         0.0324     -0.0930     -0.0090      0.0098      0.0170
        23        -0.1171     -0.1112     -0.0079      0.0261      0.0447
        24         0.0694     -0.0875      0.0185      0.0128      0.0217
        25         0.0373     -0.0309      0.0500      0.0048      0.0082
 Ground to excited state transition magnetic dipole moments (Au):
       state          X           Y           Z
         1        -0.9093      0.6267     -0.0583
         2         0.3582      0.2225      0.2222
         3        -0.1150      0.2747      0.0249
         4        -0.0507     -0.0584     -0.1889
         5         0.0834      0.2304      0.2883
         6        -0.1831     -0.1918      0.0405
         7        -0.1516     -0.2589      0.1368
         8        -0.3502      0.0424     -0.4475
         9        -0.2816     -0.1665     -0.2301
        10        -0.4589     -0.9632      0.3861
        11        -0.0996      0.0910     -0.3674
        12        -0.4515     -0.4228     -0.0576
        13        -0.1286      0.1508     -0.2610
        14        -0.1742      0.2996     -0.0692
        15        -0.0615      0.2606      0.2919
        16         0.1873      0.0744     -0.0725
        17         0.4987     -0.0622     -0.6092
        18         0.1095      0.1226      0.2218
        19        -0.3886      0.0314      0.0249
        20         0.1890      0.2348      0.1407
        21         0.0787      0.0403     -0.1138
        22         0.4148     -0.2689      0.2546
        23        -0.2278     -0.3808      0.6901
        24        -0.1824      0.5673      0.2541
        25        -0.5777     -0.2403     -0.4863
 Ground to excited state transition velocity quadrupole moments (Au):
       state          XX          YY          ZZ          XY          XZ          YZ
         1        -0.0423     -0.0780      0.0707      0.0066     -0.0403     -0.0614
         2        -0.1860      0.1983      0.0591      0.1227     -0.0894      0.0385
         3         0.1140      0.2450     -0.2677     -0.1089      0.0643      0.1203
         4         0.0207      0.0310      0.1025      0.3797     -0.0350     -0.0998
         5         0.2636     -0.3780      0.0074     -0.0465      0.0495      0.0307
         6        -0.0317      0.0108      0.0879      0.2506      0.0194     -0.0543
         7         0.2239     -0.1285     -0.0877      0.1042      0.1127      0.0293
         8        -0.1038      0.0646     -0.0213      0.2019      0.0400      0.0120
         9        -0.4038     -0.1188      0.2583      0.5172     -0.0889     -0.2190
        10         0.0491     -0.0445     -0.0041      0.0022      0.1852     -0.1117
        11         0.2208     -0.0172     -0.0743     -0.2643     -0.0263     -0.0654
        12         0.3715      0.1607     -0.1281     -0.5123      0.1584     -0.0352
        13        -0.1698      0.2656     -0.1360      0.1867      0.2439     -0.1324
        14         0.0032      0.3023      0.1398     -0.0098     -0.0510     -0.0988
        15        -0.0874      0.4717     -0.2268      0.3482     -0.2153      0.1831
        16        -0.3862      0.2805     -0.0487      0.2662     -0.1461      0.0964
        17         0.1157      0.2626     -0.0282      0.0145      0.0469      0.0408
        18        -0.5703      0.2120      0.0206     -0.4124     -0.0936      0.0667
        19         0.4601     -0.2112      0.0111      0.2281     -0.1661     -0.2012
        20        -0.0783      0.4590     -0.2870     -0.4000     -0.4228     -0.0844
        21         0.2918     -0.3646     -0.0561     -0.1520     -0.1187     -0.0249
        22        -0.4199      0.2721     -0.0882      0.1950      0.3390      0.2864
        23        -0.4630     -0.0892      0.1264      0.1180      0.0535     -0.0302
        24         0.0317     -0.2777      0.4661     -0.4846     -0.5488     -0.2853
        25         0.4878      0.0995     -0.4058     -0.2127      0.2054     -0.5683
 <0|del|b> * <b|rxdel|0> + <0|del|b> * <b|delr+rdel|0>
 Rotatory Strengths (R) in cgs (10**-40 erg-esu-cm/Gauss)
       state          XX          YY          ZZ    R(velocity)
         1         1.2788      3.9590      4.5103      3.2493
         2       -21.3215     26.4803     13.3646      6.1745
         3        13.6399     -1.4716     31.9160     14.6948
         4        -2.6058     -7.8055      4.1834     -2.0760
         5         8.1314     15.3999     -8.0608      5.1568
         6        20.2685    -13.4783      6.8079      4.5327
         7        23.5601     -0.4919      7.2694     10.1125
         8         9.4201      2.4363    -23.2480     -3.7972
         9        -1.8142    -59.3449      5.1678    -18.6638
        10       -77.7148    -18.1634    -41.1325    -45.6702
        11        15.5692     13.9049      9.1432     12.8724
        12        -0.7389     18.6710     20.2538     12.7287
        13        -1.7169     -1.6831     -0.9757     -1.4586
        14        -2.8305     -1.6468     -0.8032     -1.7602
        15        -9.0671     -2.6075      4.0918     -2.5276
        16        24.7523     -5.8994    -11.6217      2.4104
        17       -10.0302    -18.3359    -19.7685    -16.0449
        18       -14.2545    -24.7337     -7.8850    -15.6244
        19        -9.8275    -39.0002    -15.1451    -21.3243
        20       -24.6699    -11.2028      3.4881    -10.7949
        21       -15.7046      1.7558     -1.3210     -5.0899
        22        48.3715     20.4385     -2.1739     22.2120
        23        37.9978     23.2970     53.9750     38.4233
        24       -91.4903    -16.8868      4.9497    -34.4758
        25       -18.9938    -50.5924      0.6504    -22.9786
 1/2[<0|r|b>*<b|rxdel|0> + (<0|rxdel|b>*<b|r|0>)*]
 Rotatory Strengths (R) in cgs (10**-40 erg-esu-cm/Gauss)
       state          XX          YY          ZZ     R(length)
         1        19.1706      2.3412     -0.3417      7.0567
         2        46.3173    -28.8773     -0.6953      5.5816
         3         9.4150     34.8954     -1.0211     14.4298
         4       -10.4910     -1.4164      8.6775     -1.0766
         5        -4.0796    -11.3233     21.3686      1.9886
         6       -16.9309     30.6989      2.8113      5.5264
         7        -0.7724     30.6599      4.4143     11.4339
         8       -47.9400      0.5604     35.3860     -3.9979
         9       -88.4356     19.4310      8.3913    -20.2045
        10        -0.0474   -110.3653    -28.4281    -46.2803
        11        18.0526     17.8313     -1.0456     11.6128
        12        67.9663    -35.3854      4.1025     12.2278
        13         6.4878     -1.1326    -12.0154     -2.2200
        14        -1.8072     -0.8858     -2.9420     -1.8783
        15         2.1897    -15.2167      1.5759     -3.8171
        16        -9.1528     17.5138      1.5995      3.3202
        17       -37.2922    -14.6293      5.0133    -15.6361
        18       -30.4652    -15.5575     -5.4298    -17.1508
        19       -60.9782     -0.2313     -1.8711    -21.0269
        20        -7.5411    -17.3820     -1.9450     -8.9560
        21        -2.5396      0.1120    -14.4271     -5.6182
        22        30.2336     49.9708     -7.5200     24.2282
        23        47.6840     76.8906     -7.5990     38.9918
        24       -21.5000    -85.2648      6.2241    -33.5136
        25       -29.2789     11.4606    -52.5668    -23.4617
  1/2[<0|del|b>*<b|r|0> + (<0|r|b>*<b|del|0>)*] (Au)
       state          X           Y           Z        Dip. S.   Osc.(frdel)
         1        -0.0000     -0.0000      0.0000      0.0001      0.0000
         2        -0.0090     -0.0083     -0.0000      0.0173      0.0115
         3        -0.0041     -0.0081     -0.0004      0.0126      0.0084
         4        -0.0238     -0.0002     -0.0007      0.0246      0.0164
         5        -0.0011     -0.0014     -0.0045      0.0070      0.0047
         6        -0.0043     -0.0130     -0.0016      0.0190      0.0126
         7        -0.0000     -0.0084     -0.0004      0.0088      0.0058
         8        -0.0114     -0.0002     -0.0038      0.0154      0.0103
         9        -0.0615     -0.0087     -0.0010      0.0711      0.0474
        10        -0.0000     -0.0079     -0.0044      0.0123      0.0082
        11        -0.0193     -0.0257      0.0000      0.0450      0.0300
        12        -0.0147     -0.0041     -0.0035      0.0223      0.0149
        13        -0.0027     -0.0000     -0.0017      0.0044      0.0029
        14        -0.0000     -0.0000     -0.0014      0.0014      0.0009
        15        -0.0011     -0.0018     -0.0000      0.0029      0.0019
        16        -0.0023     -0.0415     -0.0003      0.0441      0.0294
        17        -0.0043     -0.0407     -0.0001      0.0451      0.0300
        18        -0.0581     -0.0126     -0.0000      0.0707      0.0471
        19        -0.0190      0.0000     -0.0045      0.0235      0.0157
        20        -0.0011     -0.0050     -0.0004      0.0064      0.0043
        21        -0.0005     -0.0000     -0.0118      0.0123      0.0082
        22        -0.0033     -0.0244     -0.0004      0.0282      0.0188
        23        -0.0347     -0.0317     -0.0001      0.0665      0.0444
        24        -0.0116     -0.0186     -0.0006      0.0308      0.0205
        25        -0.0027     -0.0021     -0.0076      0.0124      0.0083

 Excitation energies and oscillator strengths:
 
 Excited State   1:      Singlet-A      3.9825 eV  311.32 nm  f=0.0001  <S**2>=0.000
      31 -> 32         0.70182
 This state for optimization and/or second-order correction.
 Total Energy, E(TD-HF/TD-KS) =  -408.522941786    
 Copying the excited state density for this state as the 1-particle RhoCI density.
 
 Excited State   2:      Singlet-A      6.9456 eV  178.51 nm  f=0.0114  <S**2>=0.000
      28 -> 32        -0.11187
      29 -> 32         0.44411
      30 -> 32         0.51998
 
 Excited State   3:      Singlet-A      7.1281 eV  173.94 nm  f=0.0086  <S**2>=0.000
      28 -> 32         0.11312
      29 -> 32         0.52095
      30 -> 32        -0.43764
 
 Excited State   4:      Singlet-A      7.8187 eV  158.57 nm  f=0.0174  <S**2>=0.000
      27 -> 32        -0.30235
      28 -> 32         0.56134
      30 -> 32         0.12097
      31 -> 33         0.20577
 
 Excited State   5:      Singlet-A      7.8766 eV  157.41 nm  f=0.0040  <S**2>=0.000
      27 -> 32         0.11197
      28 -> 32        -0.16032
      31 -> 33         0.67110
 
 Excited State   6:      Singlet-A      8.0396 eV  154.22 nm  f=0.0154  <S**2>=0.000
      26 -> 32        -0.26840
      27 -> 32         0.56680
      28 -> 32         0.27656
      29 -> 32         0.11094
 
 Excited State   7:      Singlet-A      8.3439 eV  148.59 nm  f=0.0062  <S**2>=0.000
      23 -> 32         0.21040
      25 -> 32         0.63122
      27 -> 32         0.13460
 
 Excited State   8:      Singlet-A      8.5702 eV  144.67 nm  f=0.0106  <S**2>=0.000
      25 -> 32        -0.14131
      26 -> 32         0.23776
      31 -> 34         0.57098
      31 -> 35         0.27933
 
 Excited State   9:      Singlet-A      8.8090 eV  140.75 nm  f=0.0490  <S**2>=0.000
      23 -> 32         0.12253
      24 -> 32         0.13475
      26 -> 32         0.48613
      27 -> 32         0.12755
      28 -> 32         0.14076
      31 -> 34        -0.35197
      31 -> 35         0.19831
 
 Excited State  10:      Singlet-A      8.9445 eV  138.61 nm  f=0.0081  <S**2>=0.000
      20 -> 32         0.11127
      23 -> 32         0.54899
      24 -> 32        -0.36217
      25 -> 32        -0.14822
 
 Excited State  11:      Singlet-A      9.0355 eV  137.22 nm  f=0.0315  <S**2>=0.000
      23 -> 32        -0.13386
      24 -> 32        -0.23785
      26 -> 32        -0.19211
      31 -> 34        -0.16913
      31 -> 35         0.57444
 
 Excited State  12:      Singlet-A      9.2621 eV  133.86 nm  f=0.0158  <S**2>=0.000
      22 -> 32        -0.12235
      23 -> 32         0.26559
      24 -> 32         0.52673
      25 -> 32        -0.13407
      26 -> 32        -0.22385
      28 -> 32        -0.10439
      31 -> 35         0.17397
 
 Excited State  13:      Singlet-A      9.5759 eV  129.48 nm  f=0.0022  <S**2>=0.000
      30 -> 33         0.69273
 
 Excited State  14:      Singlet-A      9.7188 eV  127.57 nm  f=0.0009  <S**2>=0.000
      31 -> 36         0.55579
      31 -> 37         0.40624
 
 Excited State  15:      Singlet-A      9.8247 eV  126.20 nm  f=0.0023  <S**2>=0.000
      29 -> 33         0.52572
      31 -> 36         0.32327
      31 -> 37        -0.32760
 
 Excited State  16:      Singlet-A      9.9155 eV  125.04 nm  f=0.0283  <S**2>=0.000
      29 -> 33         0.44526
      31 -> 36        -0.25696
      31 -> 37         0.45857
 
 Excited State  17:      Singlet-A     10.0643 eV  123.19 nm  f=0.0301  <S**2>=0.000
      20 -> 32        -0.16517
      21 -> 32         0.21090
      22 -> 32         0.61595
      23 -> 32         0.11092
 
 Excited State  18:      Singlet-A     10.1927 eV  121.64 nm  f=0.0470  <S**2>=0.000
      31 -> 38         0.66728
      31 -> 39        -0.14473
 
 Excited State  19:      Singlet-A     10.3073 eV  120.29 nm  f=0.0153  <S**2>=0.000
      28 -> 33        -0.41648
      30 -> 34        -0.27154
      31 -> 38         0.12408
      31 -> 39         0.43624
 
 Excited State  20:      Singlet-A     10.3382 eV  119.93 nm  f=0.0037  <S**2>=0.000
      21 -> 32         0.13807
      28 -> 33         0.47059
      30 -> 34        -0.42391
      30 -> 35        -0.15565
      31 -> 39         0.13301
 
 Excited State  21:      Singlet-A     10.4074 eV  119.13 nm  f=0.0087  <S**2>=0.000
      19 -> 32         0.12017
      20 -> 32        -0.24600
      21 -> 32         0.41982
      22 -> 32        -0.16855
      28 -> 33        -0.22834
      30 -> 34        -0.17672
      31 -> 39        -0.31144
 
 Excited State  22:      Singlet-A     10.4477 eV  118.67 nm  f=0.0208  <S**2>=0.000
      19 -> 32         0.10900
      20 -> 32        -0.18798
      21 -> 32         0.26174
      22 -> 32        -0.18147
      28 -> 33         0.15878
      30 -> 34         0.36600
      30 -> 35         0.10775
      31 -> 38         0.12387
      31 -> 39         0.33783
 
 Excited State  23:      Singlet-A     10.6108 eV  116.85 nm  f=0.0440  <S**2>=0.000
      20 -> 32         0.53099
      21 -> 32         0.38081
      23 -> 32        -0.11641
      27 -> 33         0.12130
      29 -> 34        -0.10674
 
 Excited State  24:      Singlet-A     10.7135 eV  115.73 nm  f=0.0195  <S**2>=0.000
      27 -> 33         0.54058
      29 -> 34         0.31917
      30 -> 34        -0.18189
      30 -> 35         0.17469
 
 Excited State  25:      Singlet-A     10.7217 eV  115.64 nm  f=0.0087  <S**2>=0.000
      20 -> 32         0.19564
      27 -> 33        -0.29054
      29 -> 34         0.58312
 SavETr:  write IOETrn=   770 NScale= 10 NData=  16 NLR=1 LETran=     460.

 **********************************************************************

            Population analysis using the SCF density.

 **********************************************************************

 Orbital symmetries:
       Occupied  (A) (A) (A) (A) (A) (A) (A) (A) (A) (A) (A) (A)
                 (A) (A) (A) (A) (A) (A) (A) (A) (A) (A) (A) (A)
                 (A) (A) (A) (A) (A) (A) (A)
       Virtual   (A) (A) (A) (A) (A) (A) (A) (A) (A) (A) (A) (A)
                 (A) (A) (A) (A) (A) (A) (A) (A) (A) (A) (A) (A)
                 (A) (A) (A) (A) (A) (A) (A) (A) (A) (A) (A) (A)
                 (A) (A) (A) (A) (A) (A) (A) (A) (A) (A) (A) (A)
                 (A) (A) (A) (A) (A) (A) (A) (A) (A) (A) (A) (A)
                 (A) (A) (A) (A) (A) (A) (A) (A) (A) (A) (A) (A)
                 (A) (A) (A) (A) (A) (A) (A) (A) (A) (A) (A) (A)
                 (A) (A) (A) (A) (A) (A) (A) (A) (A) (A) (A) (A)
                 (A) (A) (A) (A) (A) (A) (A) (A) (A) (A) (A) (A)
                 (A) (A) (A) (A) (A) (A) (A) (A) (A) (A) (A) (A)
                 (A) (A) (A) (A) (A) (A) (A) (A) (A) (A) (A) (A)
                 (A) (A)
 The electronic state is 1-A.
 Alpha  occ. eigenvalues --  -24.76603 -19.21885 -10.32734 -10.31963 -10.24853
 Alpha  occ. eigenvalues --  -10.24798 -10.24625 -10.24595  -1.22516  -1.05739
 Alpha  occ. eigenvalues --   -0.87098  -0.78483  -0.75474  -0.66620  -0.61634
 Alpha  occ. eigenvalues --   -0.56316  -0.53796  -0.50328  -0.49391  -0.46697
 Alpha  occ. eigenvalues --   -0.45949  -0.44372  -0.42238  -0.41065  -0.38834
 Alpha  occ. eigenvalues --   -0.37802  -0.36675  -0.35442  -0.33746  -0.32610
 Alpha  occ. eigenvalues --   -0.25628
 Alpha virt. eigenvalues --   -0.02402   0.07388   0.10452   0.12482   0.14128
 Alpha virt. eigenvalues --    0.14953   0.15935   0.16801   0.18874   0.19346
 Alpha virt. eigenvalues --    0.20325   0.21793   0.23529   0.24045   0.29369
 Alpha virt. eigenvalues --    0.32494   0.34108   0.36928   0.51317   0.52823
 Alpha virt. eigenvalues --    0.55264   0.56797   0.57270   0.58601   0.61627
 Alpha virt. eigenvalues --    0.62530   0.65026   0.68120   0.69139   0.70127
 Alpha virt. eigenvalues --    0.72369   0.73999   0.74623   0.79064   0.81081
 Alpha virt. eigenvalues --    0.83386   0.84321   0.86595   0.88614   0.89741
 Alpha virt. eigenvalues --    0.90470   0.92049   0.93916   0.94735   0.95436
 Alpha virt. eigenvalues --    0.96413   1.03661   1.09101   1.11709   1.15935
 Alpha virt. eigenvalues --    1.20776   1.23446   1.34723   1.35249   1.40539
 Alpha virt. eigenvalues --    1.41286   1.44905   1.46305   1.48939   1.54390
 Alpha virt. eigenvalues --    1.60017   1.62862   1.66279   1.69708   1.71447
 Alpha virt. eigenvalues --    1.74410   1.75364   1.80391   1.81648   1.82666
 Alpha virt. eigenvalues --    1.85054   1.88115   1.89109   1.91870   1.93707
 Alpha virt. eigenvalues --    1.96409   1.97609   1.98551   2.02789   2.03983
 Alpha virt. eigenvalues --    2.04883   2.10393   2.13112   2.13710   2.18187
 Alpha virt. eigenvalues --    2.21957   2.25168   2.27185   2.29639   2.31210
 Alpha virt. eigenvalues --    2.32405   2.35025   2.38115   2.38767   2.41801
 Alpha virt. eigenvalues --    2.42342   2.45718   2.51288   2.53282   2.56295
 Alpha virt. eigenvalues --    2.59697   2.64332   2.65717   2.68477   2.73412
 Alpha virt. eigenvalues --    2.75425   2.75851   2.79866   2.82551   2.85722
 Alpha virt. eigenvalues --    2.86817   2.92962   2.93665   2.99955   3.02923
 Alpha virt. eigenvalues --    3.06024   3.13482   3.23248   3.29637   3.31421
 Alpha virt. eigenvalues --    3.36851   3.38660   3.45784   3.49929   3.53785
 Alpha virt. eigenvalues --    3.56417   4.01258   4.24021   4.44776   4.50505
 Alpha virt. eigenvalues --    4.59694   4.66909   4.82269   4.87296
     Molecular Orbital Coefficients:
                           1         2         3         4         5
                           O         O         O         O         O
     Eigenvalues --   -24.76603 -19.21885 -10.32734 -10.31963 -10.24853
   1 1   C  1S          0.00000   0.00001   0.00154  -0.00005   0.96633
   2        2S          0.00002   0.00007   0.00002   0.00002   0.04619
   3        2PX         0.00000   0.00005   0.00008   0.00001  -0.00002
   4        2PY         0.00002   0.00001   0.00008   0.00001  -0.00015
   5        2PZ         0.00002  -0.00002  -0.00007  -0.00010  -0.00009
   6        3S         -0.00036  -0.00059   0.00377  -0.00098  -0.02180
   7        3PX         0.00022   0.00004  -0.00118  -0.00104   0.00164
   8        3PY        -0.00017   0.00055  -0.00178   0.00156   0.00229
   9        3PZ        -0.00023   0.00009   0.00053   0.00005  -0.00111
  10        4XX        -0.00000  -0.00002  -0.00057   0.00010  -0.00750
  11        4YY         0.00000  -0.00001  -0.00016  -0.00002  -0.00714
  12        4ZZ         0.00002  -0.00001  -0.00016  -0.00010  -0.00706
  13        4XY         0.00000  -0.00001  -0.00004  -0.00002   0.00003
  14        4XZ        -0.00000   0.00001   0.00009  -0.00002  -0.00008
  15        4YZ        -0.00000  -0.00000   0.00002   0.00003   0.00017
  16 2   C  1S          0.00001   0.00003  -0.00014  -0.00023   0.23058
  17        2S          0.00003   0.00015  -0.00049  -0.00059   0.01067
  18        2PX         0.00000  -0.00005   0.00022   0.00012  -0.00003
  19        2PY        -0.00000   0.00001  -0.00008   0.00011  -0.00003
  20        2PZ        -0.00001   0.00001  -0.00004  -0.00003   0.00001
  21        3S         -0.00029  -0.00059   0.00164   0.00386   0.00082
  22        3PX        -0.00006   0.00051  -0.00150  -0.00141  -0.00182
  23        3PY         0.00017   0.00030  -0.00098  -0.00100   0.00159
  24        3PZ         0.00014  -0.00016   0.00024  -0.00068  -0.00072
  25        4XX         0.00002   0.00000  -0.00002  -0.00022  -0.00196
  26        4YY         0.00001   0.00004  -0.00010  -0.00016  -0.00201
  27        4ZZ         0.00001   0.00006  -0.00015  -0.00018  -0.00188
  28        4XY        -0.00000  -0.00000   0.00000  -0.00002   0.00017
  29        4XZ        -0.00000   0.00000   0.00001   0.00004  -0.00013
  30        4YZ        -0.00000  -0.00002   0.00000   0.00003   0.00009
  31 3   C  1S          0.00000  -0.00002   0.00010  -0.00006   0.00985
  32        2S          0.00001  -0.00009   0.00037  -0.00006   0.00022
  33        2PX        -0.00001  -0.00001   0.00001   0.00014   0.00005
  34        2PY        -0.00001   0.00001   0.00000  -0.00002  -0.00015
  35        2PZ        -0.00001  -0.00000   0.00001  -0.00008   0.00007
  36        3S         -0.00018   0.00078  -0.00282  -0.00134   0.00072
  37        3PX         0.00018  -0.00034   0.00142  -0.00008   0.00050
  38        3PY         0.00032   0.00020  -0.00103  -0.00140   0.00112
  39        3PZ         0.00008   0.00007  -0.00014   0.00025  -0.00035
  40        4XX         0.00001  -0.00000   0.00003  -0.00002  -0.00022
  41        4YY         0.00002  -0.00002   0.00011  -0.00011  -0.00023
  42        4ZZ         0.00001   0.00000   0.00008  -0.00013  -0.00025
  43        4XY        -0.00000  -0.00003   0.00010   0.00003  -0.00004
  44        4XZ         0.00000   0.00000  -0.00001  -0.00000   0.00001
  45        4YZ         0.00000   0.00001  -0.00003   0.00002  -0.00002
  46 4   C  1S          0.00001   0.00003  -0.00013   0.00157  -0.00171
  47        2S          0.00015   0.00015  -0.00056  -0.00035  -0.00045
  48        2PX        -0.00001  -0.00002   0.00014   0.00004  -0.00008
  49        2PY        -0.00000   0.00004  -0.00018   0.00003  -0.00014
  50        2PZ        -0.00002  -0.00000   0.00004   0.00005   0.00003
  51        3S         -0.00032  -0.00060   0.00226   0.00690   0.00217
  52        3PX         0.00070  -0.00008   0.00006  -0.00270   0.00024
  53        3PY        -0.00022  -0.00050   0.00197   0.00233   0.00102
  54        3PZ         0.00005   0.00013  -0.00014   0.00104   0.00028
  55        4XX        -0.00012   0.00002  -0.00010  -0.00032  -0.00009
  56        4YY         0.00000  -0.00000  -0.00004  -0.00022  -0.00016
  57        4ZZ        -0.00000   0.00006  -0.00017  -0.00023  -0.00013
  58        4XY         0.00003   0.00001  -0.00004   0.00005  -0.00001
  59        4XZ         0.00002  -0.00001  -0.00001   0.00012   0.00001
  60        4YZ        -0.00001  -0.00000   0.00001  -0.00002   0.00004
  61 5   C  1S         -0.00005   0.00000   0.01623   0.99360   0.00003
  62        2S         -0.00007   0.00004   0.00082   0.04690  -0.00012
  63        2PX        -0.00058  -0.00001  -0.00002  -0.00083  -0.00002
  64        2PY        -0.00028  -0.00005  -0.00010  -0.00032  -0.00006
  65        2PZ        -0.00012   0.00000   0.00007  -0.00028   0.00004
  66        3S          0.00124  -0.00048   0.00285  -0.02412  -0.00028
  67        3PX         0.00009  -0.00057   0.00100  -0.00238  -0.00111
  68        3PY         0.00021  -0.00029   0.00198  -0.00243   0.00041
  69        3PZ        -0.00050  -0.00004  -0.00032   0.00268   0.00033
  70        4XX         0.00041   0.00001  -0.00031  -0.00679  -0.00004
  71        4YY         0.00008  -0.00002  -0.00063  -0.00730   0.00001
  72        4ZZ         0.00000   0.00000  -0.00026  -0.00699  -0.00013
  73        4XY         0.00023  -0.00000   0.00012   0.00036  -0.00006
  74        4XZ         0.00013  -0.00001   0.00000   0.00023   0.00002
  75        4YZ         0.00007   0.00000   0.00011   0.00005  -0.00002
  76 6   C  1S          0.00001  -0.00003   0.99330  -0.01647  -0.00175
  77        2S          0.00016   0.00038   0.04595  -0.00114  -0.00044
  78        2PX        -0.00004  -0.00006  -0.00047   0.00016  -0.00012
  79        2PY        -0.00000   0.00004   0.00031   0.00011  -0.00017
  80        2PZ        -0.00001  -0.00000  -0.00002  -0.00001   0.00002
  81        3S         -0.00037  -0.00219  -0.01040   0.00750   0.00621
  82        3PX         0.00036   0.00319  -0.00616  -0.00051   0.00454
  83        3PY         0.00073  -0.00217   0.00422  -0.00530   0.00157
  84        3PZ         0.00001   0.00018  -0.00033   0.00070  -0.00070
  85        4XX        -0.00002  -0.00063  -0.00705   0.00004  -0.00039
  86        4YY        -0.00008  -0.00034  -0.00748  -0.00023  -0.00018
  87        4ZZ         0.00003  -0.00009  -0.00802  -0.00011  -0.00021
  88        4XY        -0.00004   0.00045  -0.00069  -0.00006  -0.00015
  89        4XZ        -0.00001  -0.00006   0.00005   0.00004   0.00008
  90        4YZ        -0.00000   0.00001  -0.00009   0.00010   0.00003
  91 7   O  1S          0.00002   0.99302   0.00001  -0.00004  -0.00006
  92        2S          0.00006   0.02493   0.00097  -0.00019  -0.00028
  93        2PX        -0.00000   0.00095  -0.00007  -0.00004  -0.00003
  94        2PY        -0.00003  -0.00067   0.00006   0.00003   0.00004
  95        2PZ         0.00000   0.00006   0.00000  -0.00002   0.00001
  96        3S         -0.00024   0.01314  -0.00661   0.00057   0.00121
  97        3PX        -0.00009   0.00130  -0.00243   0.00040  -0.00009
  98        3PY        -0.00003  -0.00090   0.00168   0.00049  -0.00062
  99        3PZ        -0.00001   0.00010  -0.00020  -0.00001   0.00007
 100        4XX         0.00004  -0.00722   0.00009   0.00001  -0.00016
 101        4YY         0.00007  -0.00740   0.00040  -0.00014  -0.00004
 102        4ZZ         0.00009  -0.00758   0.00080  -0.00023  -0.00026
 103        4XY        -0.00000  -0.00028   0.00047   0.00006  -0.00004
 104        4XZ        -0.00001   0.00002  -0.00003  -0.00000  -0.00002
 105        4YZ         0.00000  -0.00003   0.00008  -0.00003  -0.00006
 106 8   F  1S          0.99327   0.00003  -0.00005  -0.00017  -0.00002
 107        2S          0.01981   0.00016  -0.00031  -0.00060  -0.00010
 108        2PX         0.00070   0.00001  -0.00003   0.00001  -0.00001
 109        2PY         0.00033   0.00001  -0.00000  -0.00003  -0.00003
 110        2PZ         0.00020   0.00001  -0.00002   0.00006   0.00002
 111        3S          0.01268  -0.00063   0.00107   0.00318   0.00018
 112        3PX        -0.00063  -0.00008   0.00018  -0.00040   0.00005
 113        3PY        -0.00032   0.00002  -0.00005   0.00000   0.00011
 114        3PZ        -0.00016  -0.00008   0.00012  -0.00050  -0.00011
 115        4XX        -0.00762   0.00013  -0.00022  -0.00118  -0.00007
 116        4YY        -0.00730   0.00015  -0.00017  -0.00045  -0.00004
 117        4ZZ        -0.00726   0.00013  -0.00022  -0.00028  -0.00013
 118        4XY        -0.00023   0.00001   0.00002  -0.00044   0.00001
 119        4XZ        -0.00013  -0.00002   0.00004  -0.00038   0.00000
 120        4YZ        -0.00005  -0.00001  -0.00004  -0.00018  -0.00002
 121 9   H  1S         -0.00003   0.00003  -0.00015   0.00018  -0.00001
 122        2S         -0.00007   0.00015   0.00036   0.00001   0.00276
 123        3PX        -0.00001  -0.00001  -0.00010   0.00005   0.00003
 124        3PY         0.00001  -0.00002   0.00002  -0.00005  -0.00013
 125        3PZ        -0.00000   0.00001   0.00006   0.00003  -0.00030
 126 10  H  1S          0.00005   0.00001  -0.00004  -0.00009  -0.00005
 127        2S          0.00009  -0.00018   0.00040  -0.00026   0.00241
 128        3PX         0.00000  -0.00004  -0.00001  -0.00001  -0.00002
 129        3PY        -0.00000  -0.00000  -0.00003  -0.00003   0.00024
 130        3PZ         0.00000   0.00002  -0.00005   0.00004   0.00019
 131 11  H  1S         -0.00001   0.00006  -0.00024  -0.00019  -0.00024
 132        2S         -0.00002   0.00016  -0.00018  -0.00024   0.00069
 133        3PX        -0.00000  -0.00002   0.00008   0.00010  -0.00006
 134        3PY        -0.00001  -0.00001   0.00002   0.00006   0.00002
 135        3PZ         0.00000  -0.00000  -0.00002   0.00001   0.00001
 136 12  H  1S          0.00002  -0.00002   0.00008  -0.00004  -0.00016
 137        2S          0.00001  -0.00025   0.00080   0.00046   0.00045
 138        3PX         0.00001   0.00001  -0.00004  -0.00006   0.00006
 139        3PY        -0.00001   0.00000  -0.00000   0.00000   0.00000
 140        3PZ        -0.00001   0.00000   0.00000   0.00005  -0.00002
 141 13  H  1S          0.00001  -0.00003   0.00010   0.00009  -0.00008
 142        2S          0.00000   0.00005  -0.00025   0.00036  -0.00041
 143        3PX         0.00000   0.00001  -0.00004  -0.00005   0.00001
 144        3PY        -0.00001  -0.00001   0.00006   0.00005  -0.00006
 145        3PZ         0.00000   0.00000  -0.00004   0.00002   0.00003
 146 14  H  1S          0.00001  -0.00004   0.00009   0.00001   0.00002
 147        2S          0.00004   0.00001  -0.00022  -0.00043   0.00046
 148        3PX        -0.00000   0.00002  -0.00006   0.00005  -0.00004
 149        3PY        -0.00001  -0.00000   0.00002   0.00004   0.00004
 150        3PZ        -0.00001  -0.00001   0.00005  -0.00001  -0.00002
 151 15  H  1S          0.00007   0.00005  -0.00028  -0.00035  -0.00010
 152        2S          0.00004   0.00015  -0.00014  -0.00011  -0.00024
 153        3PX        -0.00003   0.00000   0.00002  -0.00003  -0.00003
 154        3PY         0.00000   0.00002  -0.00009  -0.00000  -0.00009
 155        3PZ        -0.00000   0.00000   0.00003   0.00005  -0.00000
 156 16  H  1S          0.00003  -0.00001   0.00006  -0.00015  -0.00000
 157        2S         -0.00009  -0.00022   0.00085   0.00007   0.00038
 158        3PX        -0.00005   0.00000  -0.00000   0.00005  -0.00001
 159        3PY        -0.00001  -0.00001   0.00004   0.00002   0.00005
 160        3PZ         0.00000  -0.00000  -0.00000  -0.00002  -0.00003
 161 17  H  1S         -0.00002   0.00001  -0.00013   0.00004   0.00006
 162        2S         -0.00003   0.00009   0.00042   0.00250  -0.00025
 163        3PX         0.00008   0.00002  -0.00006   0.00018   0.00003
 164        3PY         0.00003   0.00001   0.00009   0.00006  -0.00004
 165        3PZ         0.00007  -0.00001  -0.00007   0.00023  -0.00002
                           6         7         8         9        10
                           O         O         O         O         O
     Eigenvalues --   -10.24798 -10.24625 -10.24595  -1.22516  -1.05739
   1 1   C  1S         -0.23100   0.00592  -0.00007  -0.00114  -0.02120
   2        2S         -0.01138  -0.00020  -0.00028   0.00222   0.03790
   3        2PX        -0.00005  -0.00011   0.00014  -0.00140  -0.02613
   4        2PY         0.00004   0.00019   0.00006  -0.00146  -0.00524
   5        2PZ        -0.00000   0.00004   0.00006   0.00005   0.00472
   6        3S          0.01155   0.00202   0.00194   0.00588   0.01028
   7        3PX         0.00155  -0.00035  -0.00034  -0.00288  -0.00758
   8        3PY        -0.00237  -0.00153  -0.00068   0.00395   0.00984
   9        3PZ         0.00160  -0.00017  -0.00008   0.00420  -0.00039
  10        4XX         0.00143  -0.00015  -0.00003   0.00036   0.00679
  11        4YY         0.00146  -0.00015  -0.00016   0.00002  -0.00146
  12        4ZZ         0.00146  -0.00020  -0.00010   0.00000  -0.00109
  13        4XY         0.00012  -0.00001  -0.00002  -0.00001   0.00146
  14        4XZ        -0.00015   0.00003  -0.00002  -0.00011  -0.00138
  15        4YZ         0.00004  -0.00002  -0.00003   0.00002  -0.00033
  16 2   C  1S          0.96425  -0.06054   0.02518  -0.00044  -0.00435
  17        2S          0.04586  -0.00303   0.00149   0.00096   0.01113
  18        2PX        -0.00018   0.00005  -0.00003  -0.00113  -0.00633
  19        2PY        -0.00000   0.00005   0.00006  -0.00038   0.00140
  20        2PZ         0.00007   0.00006   0.00004  -0.00002  -0.00150
  21        3S         -0.02297   0.00497  -0.00515   0.00490  -0.00119
  22        3PX         0.00294   0.00011   0.00109   0.00438   0.00993
  23        3PY         0.00077  -0.00211   0.00172  -0.00217   0.00739
  24        3PZ         0.00136  -0.00042   0.00064  -0.00258  -0.00447
  25        4XX        -0.00692   0.00029  -0.00003   0.00004   0.00054
  26        4YY        -0.00723   0.00004   0.00006   0.00016   0.00046
  27        4ZZ        -0.00695   0.00024  -0.00012   0.00010   0.00046
  28        4XY         0.00011   0.00003   0.00000   0.00011  -0.00040
  29        4XZ        -0.00011  -0.00001  -0.00001   0.00005   0.00042
  30        4YZ        -0.00007  -0.00008   0.00005  -0.00002  -0.00039
  31 3   C  1S          0.06461   0.88978  -0.43728  -0.00082  -0.00251
  32        2S          0.00264   0.04194  -0.02113   0.00211   0.00291
  33        2PX        -0.00010  -0.00003   0.00006  -0.00151  -0.00207
  34        2PY        -0.00001   0.00005   0.00007   0.00010   0.00176
  35        2PZ        -0.00001  -0.00001  -0.00001   0.00024  -0.00001
  36        3S          0.00622  -0.01636   0.01632   0.00184   0.01366
  37        3PX        -0.00095   0.00045  -0.00356  -0.00124  -0.00647
  38        3PY         0.00260  -0.00138   0.00054  -0.00592   0.00496
  39        3PZ         0.00056  -0.00017   0.00000  -0.00329   0.00195
  40        4XX        -0.00059  -0.00683   0.00286   0.00016   0.00028
  41        4YY        -0.00094  -0.00673   0.00306   0.00003   0.00000
  42        4ZZ        -0.00062  -0.00647   0.00295   0.00016  -0.00012
  43        4XY        -0.00006  -0.00015  -0.00013   0.00016  -0.00052
  44        4XZ        -0.00004  -0.00009  -0.00005   0.00009   0.00013
  45        4YZ        -0.00013  -0.00012   0.00000   0.00005   0.00026
  46 4   C  1S          0.00468   0.43766   0.89197  -0.00942  -0.00276
  47        2S          0.00051   0.02052   0.04266   0.01404   0.00880
  48        2PX        -0.00004  -0.00006  -0.00004  -0.01387  -0.00124
  49        2PY         0.00001   0.00002   0.00018   0.00436   0.00491
  50        2PZ        -0.00007  -0.00004  -0.00002   0.00529   0.00084
  51        3S         -0.00319  -0.00438  -0.02281   0.01581  -0.00613
  52        3PX        -0.00007   0.00183  -0.00119  -0.01531   0.00085
  53        3PY        -0.00156   0.00016  -0.00290   0.00541  -0.01117
  54        3PZ        -0.00053   0.00001  -0.00130   0.00075   0.00354
  55        4XX        -0.00000  -0.00378  -0.00659   0.00369   0.00010
  56        4YY         0.00006  -0.00340  -0.00639  -0.00018   0.00034
  57        4ZZ        -0.00005  -0.00339  -0.00644  -0.00008   0.00054
  58        4XY         0.00000  -0.00009   0.00005  -0.00213  -0.00008
  59        4XZ        -0.00001  -0.00006   0.00007  -0.00211  -0.00025
  60        4YZ        -0.00002  -0.00009  -0.00009   0.00102   0.00021
  61 5   C  1S         -0.00006  -0.00083  -0.00168  -0.06334  -0.01357
  62        2S         -0.00061  -0.00030  -0.00029   0.11882   0.02413
  63        2PX        -0.00009  -0.00011   0.00001  -0.08681   0.00483
  64        2PY        -0.00008   0.00013  -0.00004  -0.03869   0.03213
  65        2PZ        -0.00006   0.00003   0.00003  -0.02638  -0.00390
  66        3S          0.00377   0.00269   0.00523   0.01235   0.00778
  67        3PX         0.00181   0.00166   0.00141   0.00324  -0.01087
  68        3PY         0.00095  -0.00023  -0.00168  -0.00079   0.00086
  69        3PZ        -0.00027  -0.00040  -0.00138   0.01019  -0.00232
  70        4XX        -0.00023  -0.00018  -0.00021   0.01348  -0.00225
  71        4YY        -0.00016  -0.00019  -0.00022  -0.00426   0.00680
  72        4ZZ        -0.00019  -0.00016  -0.00017  -0.00831  -0.00022
  73        4XY        -0.00005   0.00007   0.00011   0.01199  -0.00326
  74        4XZ        -0.00004   0.00004   0.00013   0.00717  -0.00028
  75        4YZ        -0.00002  -0.00005  -0.00012   0.00333  -0.00229
  76 6   C  1S          0.00041   0.00002  -0.00002  -0.01185  -0.11829
  77        2S         -0.00008   0.00013  -0.00035   0.01938   0.22402
  78        2PX        -0.00006   0.00002  -0.00006  -0.00924  -0.13864
  79        2PY         0.00005   0.00003   0.00011  -0.01157   0.09814
  80        2PZ        -0.00001   0.00001  -0.00000   0.00169  -0.00936
  81        3S         -0.00365  -0.00173  -0.00050   0.01752   0.07515
  82        3PX        -0.00030  -0.00149   0.00097  -0.00655   0.04722
  83        3PY        -0.00001   0.00028  -0.00147  -0.01450  -0.03129
  84        3PZ        -0.00003   0.00008   0.00030  -0.00103   0.00367
  85        4XX         0.00003  -0.00003  -0.00020   0.00037   0.01027
  86        4YY        -0.00011   0.00008  -0.00011   0.00490  -0.00354
  87        4ZZ        -0.00005   0.00004  -0.00016  -0.00154  -0.01641
  88        4XY         0.00008   0.00003  -0.00003   0.00076  -0.02072
  89        4XZ         0.00002  -0.00001  -0.00006  -0.00009   0.00169
  90        4YZ        -0.00003   0.00004   0.00002  -0.00096  -0.00174
  91 7   O  1S         -0.00006   0.00001  -0.00007  -0.00792  -0.19264
  92        2S         -0.00025   0.00006  -0.00032   0.01621   0.41733
  93        2PX         0.00000  -0.00000  -0.00001   0.00492   0.12579
  94        2PY         0.00001  -0.00001  -0.00002  -0.00641  -0.08643
  95        2PZ         0.00002  -0.00001  -0.00003   0.00054   0.00830
  96        3S          0.00152  -0.00051   0.00207   0.01456   0.42075
  97        3PX         0.00045   0.00004   0.00053   0.00186   0.05522
  98        3PY        -0.00028   0.00009  -0.00022  -0.00140  -0.03723
  99        3PZ        -0.00001   0.00001   0.00007   0.00064   0.00380
 100        4XX        -0.00012   0.00006  -0.00014  -0.00030   0.00484
 101        4YY        -0.00017   0.00003  -0.00020   0.00042  -0.00282
 102        4ZZ        -0.00016   0.00002  -0.00020  -0.00087  -0.00562
 103        4XY        -0.00006  -0.00001  -0.00005  -0.00034  -0.01221
 104        4XZ         0.00001  -0.00000  -0.00001   0.00015   0.00168
 105        4YZ        -0.00001  -0.00000  -0.00001  -0.00007   0.00045
 106 8   F  1S         -0.00006  -0.00007   0.00006  -0.21976   0.01954
 107        2S         -0.00034  -0.00041   0.00029   0.49172  -0.04239
 108        2PX        -0.00002  -0.00005   0.00000   0.08029  -0.00146
 109        2PY        -0.00000   0.00001  -0.00000   0.03621   0.00570
 110        2PZ        -0.00002   0.00000   0.00001   0.02127  -0.00123
 111        3S          0.00118   0.00133  -0.00137   0.46413  -0.05214
 112        3PX         0.00013   0.00024  -0.00029   0.04711  -0.00266
 113        3PY         0.00004   0.00001  -0.00003   0.02058   0.00375
 114        3PZ         0.00015   0.00003  -0.00004   0.01185  -0.00166
 115        4XX        -0.00020  -0.00021   0.00026   0.02447  -0.00071
 116        4YY        -0.00025  -0.00030   0.00019   0.01195   0.00113
 117        4ZZ        -0.00023  -0.00030   0.00018   0.01000  -0.00047
 118        4XY         0.00002  -0.00001  -0.00005   0.00883   0.00013
 119        4XZ         0.00003  -0.00003  -0.00007   0.00479  -0.00021
 120        4YZ         0.00001   0.00005   0.00008   0.00218  -0.00010
 121 9   H  1S         -0.00026  -0.00019  -0.00011   0.00082   0.00794
 122        2S         -0.00053  -0.00028  -0.00032   0.00125   0.00194
 123        3PX         0.00001  -0.00002   0.00005   0.00004  -0.00011
 124        3PY         0.00003   0.00011   0.00005  -0.00018  -0.00015
 125        3PZ         0.00012   0.00001  -0.00001   0.00004   0.00102
 126 10  H  1S         -0.00017   0.00004  -0.00001  -0.00044   0.00919
 127        2S         -0.00070   0.00074   0.00012  -0.00190  -0.00015
 128        3PX         0.00000   0.00002  -0.00001  -0.00006  -0.00078
 129        3PY        -0.00007  -0.00005  -0.00003   0.00001  -0.00133
 130        3PZ        -0.00007  -0.00002  -0.00002  -0.00001  -0.00023
 131 11  H  1S          0.00017  -0.00012   0.00026   0.00065   0.00335
 132        2S          0.00287  -0.00022  -0.00001   0.00038   0.00272
 133        3PX        -0.00016   0.00001  -0.00003  -0.00016  -0.00040
 134        3PY        -0.00006  -0.00003   0.00003  -0.00001  -0.00020
 135        3PZ         0.00028  -0.00006   0.00002  -0.00001  -0.00026
 136 12  H  1S         -0.00009  -0.00012   0.00005  -0.00040   0.00061
 137        2S          0.00221  -0.00016   0.00005  -0.00248  -0.00635
 138        3PX         0.00027  -0.00004   0.00001   0.00005   0.00002
 139        3PY         0.00011  -0.00003  -0.00002   0.00015   0.00001
 140        3PZ        -0.00015   0.00000  -0.00005   0.00002   0.00002
 141 13  H  1S         -0.00029  -0.00010  -0.00017  -0.00007   0.00053
 142        2S          0.00024   0.00246  -0.00115  -0.00113   0.00173
 143        3PX         0.00002   0.00009  -0.00006   0.00000   0.00002
 144        3PY         0.00003   0.00003  -0.00004   0.00011  -0.00014
 145        3PZ         0.00001  -0.00025   0.00016  -0.00003   0.00012
 146 14  H  1S         -0.00022  -0.00015  -0.00026   0.00034   0.00030
 147        2S          0.00008   0.00236  -0.00123  -0.00027   0.00056
 148        3PX         0.00003   0.00003  -0.00002  -0.00006   0.00019
 149        3PY        -0.00000  -0.00013   0.00005   0.00016  -0.00001
 150        3PZ        -0.00000   0.00023  -0.00016   0.00015  -0.00014
 151 15  H  1S          0.00020  -0.00018   0.00021   0.00241   0.00274
 152        2S          0.00000   0.00130   0.00263   0.00017   0.00264
 153        3PX        -0.00001   0.00002  -0.00005  -0.00006   0.00004
 154        3PY         0.00005   0.00007   0.00015  -0.00012   0.00042
 155        3PZ         0.00002  -0.00008  -0.00026   0.00056   0.00017
 156 16  H  1S         -0.00001  -0.00017  -0.00000   0.00299   0.00018
 157        2S         -0.00011   0.00107   0.00206   0.00314  -0.00592
 158        3PX         0.00002  -0.00001   0.00000  -0.00005  -0.00003
 159        3PY         0.00001  -0.00010  -0.00027   0.00067  -0.00009
 160        3PZ         0.00005   0.00005   0.00015  -0.00006  -0.00002
 161 17  H  1S         -0.00023  -0.00018  -0.00018   0.01852   0.00505
 162        2S         -0.00033   0.00004   0.00010   0.00166   0.00103
 163        3PX        -0.00012  -0.00006   0.00005  -0.00189   0.00033
 164        3PY        -0.00006  -0.00000  -0.00000  -0.00028   0.00010
 165        3PZ        -0.00000  -0.00004  -0.00003  -0.00423  -0.00043
                          11        12        13        14        15
                           O         O         O         O         O
     Eigenvalues --    -0.87098  -0.78483  -0.75474  -0.66620  -0.61634
   1 1   C  1S         -0.08558  -0.11855   0.06958  -0.08620  -0.00045
   2        2S          0.15706   0.21966  -0.13162   0.16465   0.00171
   3        2PX         0.00962   0.02586   0.06435  -0.05892  -0.13833
   4        2PY        -0.04503  -0.01087   0.00621   0.04860  -0.02801
   5        2PZ         0.02021   0.01868  -0.00064  -0.04943  -0.03425
   6        3S          0.12215   0.21133  -0.12614   0.19382   0.00315
   7        3PX         0.00255   0.00136   0.00714  -0.01821  -0.03827
   8        3PY        -0.00973  -0.00529   0.00582   0.00389  -0.01116
   9        3PZ         0.00168   0.00661   0.00081  -0.01299  -0.01193
  10        4XX         0.00078   0.00061   0.00023  -0.00309   0.00144
  11        4YY         0.00054  -0.00295   0.00183  -0.00249   0.00025
  12        4ZZ        -0.00245  -0.00198   0.00168  -0.00100  -0.00203
  13        4XY        -0.00092  -0.00280  -0.00679   0.00328   0.00804
  14        4XZ         0.00155   0.00243   0.00294  -0.00285  -0.00638
  15        4YZ        -0.00296  -0.00179   0.00006   0.00397   0.00070
  16 2   C  1S         -0.09918  -0.09466  -0.05918   0.08420   0.08296
  17        2S          0.17983   0.17501   0.11002  -0.16103  -0.16186
  18        2PX        -0.03568  -0.02742   0.04815  -0.05439  -0.02462
  19        2PY        -0.02115   0.05031  -0.07796   0.04198  -0.11445
  20        2PZ        -0.02366  -0.01728   0.00045  -0.04659  -0.04109
  21        3S          0.14654   0.15793   0.10805  -0.18177  -0.18753
  22        3PX        -0.01196  -0.00797   0.00748  -0.00743  -0.00760
  23        3PY        -0.00672   0.00551  -0.01513   0.01276  -0.03766
  24        3PZ        -0.00233  -0.00239  -0.00233  -0.01205  -0.01305
  25        4XX        -0.00052   0.00077  -0.00659   0.00315  -0.00019
  26        4YY         0.00270  -0.00303   0.00583   0.00188   0.00801
  27        4ZZ        -0.00351  -0.00193  -0.00200   0.00152  -0.00112
  28        4XY        -0.00152  -0.00507   0.00240  -0.00338  -0.00127
  29        4XZ         0.00290   0.00295  -0.00233   0.00416   0.00100
  30        4YZ         0.00084  -0.00317   0.00437  -0.00206   0.00447
  31 3   C  1S         -0.09817   0.02256  -0.12571   0.00894  -0.09997
  32        2S          0.18068  -0.04315   0.23430  -0.01848   0.19439
  33        2PX        -0.03920   0.05062   0.01561  -0.06679   0.05688
  34        2PY         0.02794   0.06588   0.00782  -0.08812  -0.05709
  35        2PZ         0.00315   0.01773   0.00381  -0.05787  -0.01892
  36        3S          0.12969  -0.03194   0.22538  -0.01372   0.22319
  37        3PX        -0.00410   0.00509  -0.00093  -0.02027   0.01524
  38        3PY         0.00537   0.00865   0.00056  -0.02244  -0.01740
  39        3PZ         0.00044   0.00325   0.00179  -0.01729  -0.00618
  40        4XX         0.00157  -0.00710  -0.00354   0.00657  -0.00346
  41        4YY         0.00231   0.00689   0.00022  -0.00564  -0.00738
  42        4ZZ        -0.00458   0.00070  -0.00254  -0.00063   0.00134
  43        4XY         0.00121  -0.00328   0.00210   0.00306  -0.00403
  44        4XZ         0.00117  -0.00150   0.00096   0.00262  -0.00158
  45        4YZ         0.00262   0.00119   0.00196  -0.00221  -0.00363
  46 4   C  1S         -0.09440   0.11478  -0.02327  -0.09463   0.06506
  47        2S          0.17162  -0.21350   0.04318   0.18071  -0.12750
  48        2PX         0.01343   0.02429   0.09861   0.02789   0.12721
  49        2PY         0.04088  -0.01201  -0.02166  -0.04994   0.05201
  50        2PZ         0.02255  -0.02033  -0.01346  -0.05363   0.00418
  51        3S          0.14084  -0.19622   0.04029   0.19873  -0.14846
  52        3PX         0.00723  -0.00286   0.01444   0.00402   0.03946
  53        3PY         0.01262  -0.00557  -0.00557  -0.00622   0.01929
  54        3PZ         0.00333  -0.00457  -0.00043  -0.01421   0.00114
  55        4XX         0.00287  -0.00076   0.00420  -0.00385   0.00677
  56        4YY        -0.00071   0.00287  -0.00296  -0.00184   0.00021
  57        4ZZ        -0.00329   0.00214  -0.00193  -0.00195  -0.00195
  58        4XY         0.00054   0.00298   0.00781   0.00229   0.00309
  59        4XZ        -0.00037   0.00251   0.00519   0.00264   0.00433
  60        4YZ         0.00305  -0.00206  -0.00168  -0.00361   0.00089
  61 5   C  1S         -0.07146   0.08803   0.09591   0.08231   0.01545
  62        2S          0.13737  -0.17246  -0.19204  -0.16963  -0.03197
  63        2PX         0.06597  -0.05777  -0.01638   0.05453  -0.02860
  64        2PY         0.01379   0.02661  -0.06936  -0.08306   0.17278
  65        2PZ        -0.01882   0.01906  -0.00095  -0.07580   0.02005
  66        3S          0.10204  -0.15011  -0.16494  -0.17061  -0.02907
  67        3PX         0.02052  -0.02303  -0.02342  -0.01067  -0.01550
  68        3PY         0.00835  -0.00577  -0.02044  -0.03573   0.04721
  69        3PZ        -0.00145   0.00354  -0.00476  -0.02774   0.00532
  70        4XX        -0.00175   0.00234   0.00757   0.00399  -0.00194
  71        4YY         0.00093   0.00090  -0.00333   0.00117   0.00484
  72        4ZZ        -0.00120   0.00006   0.00136   0.00179  -0.00212
  73        4XY        -0.00232   0.00623  -0.00142  -0.00252   0.00251
  74        4XZ        -0.00446   0.00430   0.00083  -0.00423   0.00177
  75        4YZ         0.00027  -0.00247   0.00279   0.00396  -0.00775
  76 6   C  1S         -0.04156  -0.00794   0.07882   0.00784  -0.08413
  77        2S          0.08111   0.01450  -0.15905  -0.01718   0.17763
  78        2PX         0.09289   0.07301  -0.10627   0.08246   0.07122
  79        2PY        -0.05716   0.07351   0.09164   0.13258  -0.05235
  80        2PZ         0.00367  -0.01998  -0.01225  -0.06900   0.00204
  81        3S          0.04953   0.01425  -0.12337  -0.01450   0.16316
  82        3PX         0.02133   0.00530  -0.03130   0.01263   0.03596
  83        3PY        -0.00990   0.00112   0.02073   0.02299  -0.02644
  84        3PZ         0.00031  -0.00060  -0.00202  -0.01619   0.00155
  85        4XX        -0.00008   0.00682   0.00391   0.00487  -0.00395
  86        4YY         0.00308  -0.00624  -0.00525  -0.00468  -0.00128
  87        4ZZ        -0.00138  -0.00048   0.00255  -0.00018  -0.00277
  88        4XY         0.00581   0.00541  -0.00952   0.00184   0.00592
  89        4XZ        -0.00182  -0.00146   0.00273  -0.00206  -0.00253
  90        4YZ        -0.00194   0.00061   0.00403   0.00287  -0.00304
  91 7   O  1S          0.04037   0.00963  -0.05379  -0.00220   0.04808
  92        2S         -0.09209  -0.02246   0.12295   0.00493  -0.11250
  93        2PX        -0.00853   0.01246  -0.00982   0.02806   0.05380
  94        2PY         0.00824   0.01797   0.00917   0.04383  -0.04137
  95        2PZ        -0.00122  -0.00475  -0.00156  -0.02365   0.00244
  96        3S         -0.08454  -0.02341   0.13387   0.00600  -0.13773
  97        3PX         0.00011   0.00545  -0.00794   0.01273   0.02867
  98        3PY         0.00046   0.00740   0.00642   0.02125  -0.02408
  99        3PZ         0.00000  -0.00189  -0.00117  -0.01095   0.00137
 100        4XX         0.00012   0.00240  -0.00210   0.00427   0.00386
 101        4YY        -0.00002  -0.00228  -0.00167  -0.00462   0.00179
 102        4ZZ        -0.00026  -0.00049   0.00060  -0.00026  -0.00237
 103        4XY         0.00035   0.00111   0.00151   0.00213  -0.00392
 104        4XZ        -0.00013  -0.00033  -0.00007  -0.00191   0.00007
 105        4YZ        -0.00011   0.00033   0.00058   0.00179  -0.00066
 106 8   F  1S          0.02854  -0.03896  -0.03574  -0.03066  -0.01690
 107        2S         -0.06408   0.08577   0.07909   0.06801   0.03527
 108        2PX         0.03100  -0.06937  -0.06771  -0.07959  -0.10412
 109        2PY         0.00884  -0.01866  -0.04280  -0.08485   0.04204
 110        2PZ         0.00151  -0.00801  -0.01764  -0.05943  -0.00498
 111        3S         -0.07883   0.12012   0.10994   0.09916   0.06280
[...]
  77        2S          0.71666
  78        2PX         0.73211
  79        2PY         0.71936
  80        2PZ         0.46941
  81        3S          0.41594
  82        3PX         0.08491
  83        3PY         0.13618
  84        3PZ         0.27306
  85        4XX         0.02101
  86        4YY         0.01451
  87        4ZZ        -0.01903
  88        4XY         0.02279
  89        4XZ         0.01274
  90        4YZ         0.00824
  91 7   O  1S          1.99301
  92        2S          0.91520
  93        2PX         0.98940
  94        2PY         1.03860
  95        2PZ         0.79953
  96        3S          1.04238
  97        3PX         0.52036
  98        3PY         0.60120
  99        3PZ         0.54009
 100        4XX        -0.00024
 101        4YY        -0.00583
 102        4ZZ        -0.00422
 103        4XY         0.00831
 104        4XZ         0.00732
 105        4YZ         0.00341
 106 8   F  1S          1.99367
 107        2S          0.94998
 108        2PX         0.98237
 109        2PY         1.13804
 110        2PZ         1.17646
 111        3S          0.97083
 112        3PX         0.60331
 113        3PY         0.70556
 114        3PZ         0.72071
 115        4XX         0.03032
 116        4YY         0.01385
 117        4ZZ         0.01136
 118        4XY         0.00520
 119        4XZ         0.00378
 120        4YZ         0.00090
 121 9   H  1S          0.51715
 122        2S          0.29947
 123        3PX         0.00256
 124        3PY         0.00238
 125        3PZ         0.00720
 126 10  H  1S          0.51914
 127        2S          0.29761
 128        3PX         0.00213
 129        3PY         0.00679
 130        3PZ         0.00278
 131 11  H  1S          0.52582
 132        2S          0.32269
 133        3PX         0.00235
 134        3PY         0.00225
 135        3PZ         0.00695
 136 12  H  1S          0.52503
 137        2S          0.31938
 138        3PX         0.00620
 139        3PY         0.00296
 140        3PZ         0.00246
 141 13  H  1S          0.52574
 142        2S          0.32186
 143        3PX         0.00386
 144        3PY         0.00234
 145        3PZ         0.00539
 146 14  H  1S          0.52615
 147        2S          0.32301
 148        3PX         0.00305
 149        3PY         0.00373
 150        3PZ         0.00481
 151 15  H  1S          0.52327
 152        2S          0.31444
 153        3PX         0.00240
 154        3PY         0.00229
 155        3PZ         0.00697
 156 16  H  1S          0.52305
 157        2S          0.31030
 158        3PX         0.00226
 159        3PY         0.00699
 160        3PZ         0.00246
 161 17  H  1S          0.53208
 162        2S          0.31363
 163        3PX         0.00176
 164        3PY         0.00246
 165        3PZ         0.00765
          Condensed to atoms (all electrons):
              1          2          3          4          5          6
     1  C    5.287125   0.293049  -0.054776   0.004772  -0.118574   0.288452
     2  C    0.293049   5.079295   0.350722  -0.060632   0.003995  -0.027945
     3  C   -0.054776   0.350722   5.076554   0.276141  -0.031691  -0.009637
     4  C    0.004772  -0.060632   0.276141   5.194474   0.316570  -0.040125
     5  C   -0.118574   0.003995  -0.031691   0.316570   4.865566   0.266193
     6  C    0.288452  -0.027945  -0.009637  -0.040125   0.266193   4.726302
     7  O   -0.076905   0.003017   0.000174   0.002074  -0.061627   0.539276
     8  F    0.002193  -0.000058   0.002738  -0.034116   0.247198  -0.025508
     9  H    0.380164  -0.038102  -0.002640  -0.001319   0.002807  -0.029233
    10  H    0.374943  -0.031170   0.004610   0.000062   0.004238  -0.023921
    11  H   -0.045040   0.398366  -0.041576  -0.002280   0.002805  -0.005632
    12  H   -0.026886   0.387761  -0.032548   0.005030  -0.000365   0.003459
    13  H   -0.001158  -0.036756   0.389813  -0.031373   0.003463  -0.000153
    14  H    0.004929  -0.037106   0.392895  -0.035392  -0.001393  -0.000055
    15  H    0.004486  -0.001746  -0.033887   0.385632  -0.035708  -0.010109
    16  H   -0.000773   0.005036  -0.031178   0.389355  -0.026928   0.004878
    17  H    0.008489  -0.002628   0.003558  -0.057886   0.382533  -0.055305
              7          8          9         10         11         12
     1  C   -0.076905   0.002193   0.380164   0.374943  -0.045040  -0.026886
     2  C    0.003017  -0.000058  -0.038102  -0.031170   0.398366   0.387761
     3  C    0.000174   0.002738  -0.002640   0.004610  -0.041576  -0.032548
     4  C    0.002074  -0.034116  -0.001319   0.000062  -0.002280   0.005030
     5  C   -0.061627   0.247198   0.002807   0.004238   0.002805  -0.000365
     6  C    0.539276  -0.025508  -0.029233  -0.023921  -0.005632   0.003459
     7  O    8.044041  -0.000575  -0.001041   0.001619   0.000129  -0.000076
     8  F   -0.000575   9.141021  -0.000013  -0.000018  -0.000003   0.000000
     9  H   -0.001041  -0.000013   0.534367  -0.018794   0.005284  -0.005050
    10  H    0.001619  -0.000018  -0.018794   0.523887  -0.003479  -0.002713
    11  H    0.000129  -0.000003   0.005284  -0.003479   0.586742  -0.031473
    12  H   -0.000076   0.000000  -0.005050  -0.002713  -0.031473   0.567163
    13  H    0.000001  -0.000034   0.002287  -0.000114   0.005290  -0.008889
    14  H    0.000002  -0.000023  -0.000059  -0.000159  -0.009190   0.000719
    15  H    0.000117   0.001550   0.000024  -0.000087  -0.000127  -0.000050
    16  H   -0.000062   0.000970   0.000031   0.000006  -0.000035  -0.000121
    17  H   -0.001653  -0.028975   0.000052  -0.000452   0.000270   0.000066
             13         14         15         16         17
     1  C   -0.001158   0.004929   0.004486  -0.000773   0.008489
     2  C   -0.036756  -0.037106  -0.001746   0.005036  -0.002628
     3  C    0.389813   0.392895  -0.033887  -0.031178   0.003558
     4  C   -0.031373  -0.035392   0.385632   0.389355  -0.057886
     5  C    0.003463  -0.001393  -0.035708  -0.026928   0.382533
     6  C   -0.000153  -0.000055  -0.010109   0.004878  -0.055305
     7  O    0.000001   0.000002   0.000117  -0.000062  -0.001653
     8  F   -0.000034  -0.000023   0.001550   0.000970  -0.028975
     9  H    0.002287  -0.000059   0.000024   0.000031   0.000052
    10  H   -0.000114  -0.000159  -0.000087   0.000006  -0.000452
    11  H    0.005290  -0.009190  -0.000127  -0.000035   0.000270
    12  H   -0.008889   0.000719  -0.000050  -0.000121   0.000066
    13  H    0.578112  -0.032092  -0.010400   0.001358  -0.000151
    14  H   -0.032092   0.580404   0.005073  -0.009610   0.001809
    15  H   -0.010400   0.005073   0.572300  -0.033823   0.006122
    16  H    0.001358  -0.009610  -0.033823   0.553369  -0.007407
    17  H   -0.000151   0.001809   0.006122  -0.007407   0.609131
 Mulliken atomic charges:
              1
     1  C   -0.324492
     2  C   -0.285098
     3  C   -0.259273
     4  C   -0.310988
     5  C    0.180918
     6  C    0.399064
     7  O   -0.448512
     8  F   -0.306347
     9  H    0.171233
    10  H    0.171545
    11  H    0.139947
    12  H    0.143971
    13  H    0.140794
    14  H    0.139247
    15  H    0.150631
    16  H    0.154934
    17  H    0.142427
 Sum of Mulliken atomic charges =  -0.00000
 Mulliken charges with hydrogens summed into heavy atoms:
              1
     1  C    0.018286
     2  C   -0.001180
     3  C    0.020768
     4  C   -0.005423
     5  C    0.323345
     6  C    0.399064
     7  O   -0.448512
     8  F   -0.306347
 Sum of Mulliken charges with hydrogens summed into heavy atoms =  -0.00000
 Electronic spatial extent (au):  <R**2>=            927.9529
 Charge=              0.0000 electrons
 Dipole moment (field-independent basis, Debye):
    X=              4.0866    Y=             -0.9872    Z=              0.3203  Tot=              4.2163
 Quadrupole moment (field-independent basis, Debye-Ang):
   XX=            -53.4754   YY=            -48.7810   ZZ=            -44.2697
   XY=              2.7559   XZ=             -0.8271   YZ=             -0.2055
 Traceless Quadrupole moment (field-independent basis, Debye-Ang):
   XX=             -4.6334   YY=              0.0611   ZZ=              4.5723
   XY=              2.7559   XZ=             -0.8271   YZ=             -0.2055
 Octapole moment (field-independent basis, Debye-Ang**2):
  XXX=             -2.8325  YYY=             -8.2892  ZZZ=             -0.1434  XYY=              4.4553
  XXY=             -4.2645  XXZ=             -0.4467  XZZ=             -6.6218  YZZ=             -1.4496
  YYZ=              1.2366  XYZ=             -0.5980
 Hexadecapole moment (field-independent basis, Debye-Ang**3):
 XXXX=           -601.5886 YYYY=           -434.3286 ZZZZ=            -94.2433 XXXY=             18.2161
 XXXZ=             -2.6620 YYYX=             20.6446 YYYZ=              0.4548 ZZZX=             -2.2176
 ZZZY=             -2.3930 XXYY=           -185.6702 XXZZ=           -111.4768 YYZZ=            -88.6735
 XXYZ=             -0.4519 YYXZ=             -0.5572 ZZXY=              2.5588
 N-N= 3.917230740008D+02 E-N=-1.740068020889D+03  KE= 4.054473489501D+02
 Orbital energies and kinetic energies (alpha):
                                 1                 2
   1         O               -24.766034         37.099292
   2         O               -19.218846         29.045622
   3         O               -10.327338         15.903885
   4         O               -10.319634         15.908750
   5         O               -10.248534         15.901616
   6         O               -10.247982         15.905494
   7         O               -10.246248         15.901766
   8         O               -10.245949         15.906372
   9         O                -1.225163          3.578529
  10         O                -1.057391          2.628670
  11         O                -0.870983          1.390679
  12         O                -0.784833          1.540991
  13         O                -0.754742          1.648538
  14         O                -0.666197          1.461531
  15         O                -0.616339          1.552428
  16         O                -0.563162          1.633583
  17         O                -0.537961          1.588573
  18         O                -0.503280          1.570290
  19         O                -0.493914          1.525476
  20         O                -0.466974          1.746234
  21         O                -0.459494          1.543890
  22         O                -0.443725          1.525312
  23         O                -0.422383          1.813624
  24         O                -0.410651          1.373067
  25         O                -0.388343          1.993305
  26         O                -0.378019          1.683755
  27         O                -0.366754          1.994263
  28         O                -0.354418          1.692522
  29         O                -0.337462          1.558171
  30         O                -0.326100          1.834572
  31         O                -0.256278          2.272873
  32         V                -0.024025          1.854106
  33         V                 0.073880          0.986286
  34         V                 0.104521          0.948387
  35         V                 0.124817          1.440835
  36         V                 0.141282          0.954636
  37         V                 0.149529          1.011588
  38         V                 0.159345          1.159992
  39         V                 0.168012          1.435373
  40         V                 0.188744          1.181482
  41         V                 0.193464          1.472806
  42         V                 0.203252          1.438972
  43         V                 0.217927          1.657992
  44         V                 0.235286          1.831210
  45         V                 0.240447          1.308338
  46         V                 0.293690          1.943110
  47         V                 0.324940          1.863980
  48         V                 0.341082          2.033348
  49         V                 0.369285          1.755427
  50         V                 0.513168          1.866054
  51         V                 0.528234          1.935432
  52         V                 0.552640          2.088935
  53         V                 0.567970          2.145942
  54         V                 0.572698          1.987260
  55         V                 0.586009          1.914788
  56         V                 0.616268          2.272324
  57         V                 0.625296          2.466743
  58         V                 0.650259          2.572248
  59         V                 0.681197          2.553543
  60         V                 0.691393          2.851246
  61         V                 0.701265          2.578875
  62         V                 0.723692          2.340153
  63         V                 0.739989          2.325249
  64         V                 0.746234          2.474924
  65         V                 0.790636          2.319982
  66         V                 0.810815          2.381322
  67         V                 0.833861          2.509663
  68         V                 0.843215          2.509170
  69         V                 0.865946          2.490853
  70         V                 0.886142          2.429508
  71         V                 0.897414          2.511376
  72         V                 0.904704          2.450492
  73         V                 0.920486          2.484872
  74         V                 0.939156          2.397971
  75         V                 0.947353          2.326539
  76         V                 0.954360          2.608883
  77         V                 0.964133          2.456039
  78         V                 1.036610          2.304345
  79         V                 1.091012          2.839044
  80         V                 1.117088          3.091697
  81         V                 1.159350          3.031129
  82         V                 1.207762          2.626037
  83         V                 1.234461          2.458550
  84         V                 1.347229          2.649487
  85         V                 1.352491          3.360658
  86         V                 1.405386          3.700995
  87         V                 1.412856          2.764709
  88         V                 1.449048          2.934118
  89         V                 1.463047          2.828388
  90         V                 1.489392          2.568974
  91         V                 1.543900          2.714407
  92         V                 1.600172          2.755352
  93         V                 1.628617          2.882698
  94         V                 1.662792          2.961297
  95         V                 1.697076          2.813737
  96         V                 1.714471          2.966023
  97         V                 1.744102          2.872952
  98         V                 1.753635          3.039090
  99         V                 1.803906          2.898360
 100         V                 1.816476          3.151589
 101         V                 1.826665          3.063632
 102         V                 1.850538          3.204334
 103         V                 1.881154          3.190112
 104         V                 1.891088          3.148811
 105         V                 1.918699          3.202852
 106         V                 1.937071          3.160269
 107         V                 1.964093          3.328325
 108         V                 1.976088          3.316760
 109         V                 1.985510          3.322475
 110         V                 2.027886          3.295645
 111         V                 2.039830          3.195264
 112         V                 2.048832          3.299976
 113         V                 2.103928          3.286720
 114         V                 2.131117          3.275400
 115         V                 2.137100          3.392581
 116         V                 2.181868          3.410983
 117         V                 2.219570          3.245657
 118         V                 2.251681          3.327255
 119         V                 2.271852          3.526260
 120         V                 2.296388          3.474003
 121         V                 2.312098          3.445550
 122         V                 2.324048          3.669886
 123         V                 2.350250          3.559304
 124         V                 2.381152          3.767757
 125         V                 2.387669          3.585894
 126         V                 2.418013          3.573592
 127         V                 2.423417          3.577483
 128         V                 2.457178          3.558711
 129         V                 2.512884          3.692074
 130         V                 2.532822          3.591809
 131         V                 2.562951          3.653810
 132         V                 2.596974          3.635930
 133         V                 2.643318          3.765469
 134         V                 2.657170          3.802909
 135         V                 2.684767          4.200261
 136         V                 2.734116          3.942834
 137         V                 2.754254          3.873325
 138         V                 2.758508          3.906773
 139         V                 2.798660          3.942196
 140         V                 2.825511          4.005687
 141         V                 2.857223          3.973281
 142         V                 2.868165          4.010268
 143         V                 2.929621          4.182283
 144         V                 2.936646          4.270676
 145         V                 2.999552          4.507946
 146         V                 3.029228          4.883848
 147         V                 3.060240          4.557972
 148         V                 3.134818          5.781108
 149         V                 3.232479          4.913949
 150         V                 3.296368          5.027916
 151         V                 3.314213          5.022611
 152         V                 3.368511          5.033202
 153         V                 3.386599          5.100033
 154         V                 3.457837          5.080201
 155         V                 3.499287          5.145042
 156         V                 3.537853          5.169632
 157         V                 3.564168          5.183367
 158         V                 4.012581         10.373269
 159         V                 4.240209         10.046296
 160         V                 4.447756         10.423129
 161         V                 4.505049         10.468109
 162         V                 4.596939         10.324715
 163         V                 4.669089         11.189577
 164         V                 4.822686         11.111468
 165         V                 4.872964         11.587439
 Total kinetic energy from orbitals= 4.054473489501D+02
 1\1\GINC-NEUMANN2\SP\RPBE1PBE TD-FC\6-31G(d,p)\C6H9F1O1\ANV\20-Nov-202
 3\0\\#N PBE1PBE 6-31G** td=(nstates=25) gfinput pop=full\\2fluorocyclo
 hexanone/2fluorocyclohexanone_3.dat\\0,1\C,0,0.,0.,0.\C,0,1.5225,0.,0.
 \C,0,2.1036,1.4153,0.\C,0,1.2412,2.4278,-0.7545\C,0,0.3901,1.7797,-1.8
 356\C,0,-0.5314,0.7393,-1.2128\O,0,-1.6643,0.5088,-1.652\F,0,-0.3174,2
 .7666,-2.4692\H,0,-0.3875,0.4891,0.8998\H,0,-0.3687,-1.0305,-0.0292\H,
 0,1.881,-0.5288,-0.8928\H,0,1.9025,-0.5547,0.8652\H,0,2.2336,1.7632,1.
 0319\H,0,3.1077,1.3824,-0.44\H,0,0.5801,2.9383,-0.0417\H,0,1.8716,3.21
 35,-1.1863\H,0,1.0139,1.2869,-2.5883\\Version=EM64L-G09RevC.01\State=1
 -A\HF=-408.6692964\RMSD=3.338e-09\PG=C01 [X(C6H9F1O1)]\\@


 THERE IS NOTHING NOBLE IN BEING SUPERIOR TO SOME OTHER MAN.
 TRUE NOBILITY IS BEING SUPERIOR TO YOUR FORMER SELF.

                                                   -- HINDU PROVERB
 Job cpu time:  0 days  0 hours 15 minutes 23.9 seconds.
 File lengths (MBytes):  RWF=    161 Int=      0 D2E=      0 Chk=     25 Scr=      1
 Normal termination of Gaussian 09 at Mon Nov 20 22:45:45 2023.
