
                                 *****************
                                 * O   R   C   A *
                                 *****************

                                            #,                                       
                                            ###                                      
                                            ####                                     
                                            #####                                    
                                            ######                                   
                                           ########,                                 
                                     ,,################,,,,,                         
                               ,,#################################,,                 
                          ,,##########################################,,             
                       ,#########################################, ''#####,          
                    ,#############################################,,   '####,        
                  ,##################################################,,,,####,       
                ,###########''''           ''''###############################       
              ,#####''   ,,,,##########,,,,          '''####'''          '####       
            ,##' ,,,,###########################,,,                        '##       
           ' ,,###''''                  '''############,,,                           
         ,,##''                                '''############,,,,        ,,,,,,###''
      ,#''                                            '''#######################'''  
     '                                                          ''''####''''         
             ,#######,   #######,   ,#######,      ##                                
            ,#'     '#,  ##    ##  ,#'     '#,    #''#        ,####,   ,####,        
            ##       ##  ##   ,#'  ##            #'  '#       #'       #'  '#        
            ##       ##  #######   ##           ,######,      #####,   #    #        
            '#,     ,#'  ##    ##  '#,     ,#' ,#      #,     #,   #   #,  ,#        
             '#######'   ##     ##  '#######'  #'      '#     '####' # '####'        



                #########################################################
                #                        -***-                          #
                #          Department of theory and spectroscopy        #
                #                                                       #
                #                      Frank Neese                      #
                #                                                       #
                #     Directorship, Architecture, Infrastructure        #
                #                    SHARK, DRIVERS                     #
                #        Core code/Algorithms in most modules           #
                #                                                       #
                #        Max Planck Institute fuer Kohlenforschung      #
                #                Kaiser Wilhelm Platz 1                 #
                #                 D-45470 Muelheim/Ruhr                 #
                #                      Germany                          #
                #                                                       #
                #                  All rights reserved                  #
                #                        -***-                          #
                #########################################################


                         Program Version 6.0.0  -   RELEASE  -


 With contributions from (in alphabetic order):
   Daniel Aravena         : Magnetic Suceptibility
   Michael Atanasov       : Ab Initio Ligand Field Theory (pilot matlab implementation)
   Alexander A. Auer      : GIAO ZORA, VPT2 properties, NMR spectrum
   Ute Becker             : All parallelization in ORCA, NUMFREQ, NUMCALC
   Giovanni Bistoni       : ED, misc. LED, open-shell LED, HFLD
   Martin Brehm           : Molecular dynamics
   Dmytro Bykov           : pre 5.0 version of the SCF Hessian
   Marcos Casanova-Páez   : Triplet and SCS-CIS(D). UHF-(DLPNO)-IP/EA/STEOM-CCSD. UHF-CVS-IP/STEOM-CCSD
   Vijay G. Chilkuri      : MRCI spin determinant printing, contributions to CSF-ICE
   Pauline Colinet        : FMM embedding
   Dipayan Datta          : RHF DLPNO-CCSD density
   Achintya Kumar Dutta   : EOM-CC, STEOM-CC
   Nicolas Foglia         : Exact transition moments, OPA infrastructure, MCD improvements
   Dmitry Ganyushin       : Spin-Orbit,Spin-Spin,Magnetic field MRCI
   Miquel Garcia          : C-PCM and meta-GGA Hessian, CCSD/C-PCM, Gaussian charge scheme
   Tiago L. C. Gouveia    : GS-ROHF, GS-ROCIS
   Yang Guo               : DLPNO-NEVPT2, F12-NEVPT2, CIM, IAO-localization
   Andreas Hansen         : Spin unrestricted coupled pair/coupled cluster methods
   Ingolf Harden          : AUTO-CI MPn and infrastructure 
   Benjamin Helmich-Paris : MC-RPA, TRAH-(SCF,CASSCF), AVAS, COSX integrals, SCF dyn. polar.
   Lee Huntington         : MR-EOM, pCC
   Robert Izsak           : Overlap fitted RIJCOSX, COSX-SCS-MP3, EOM
   Riya Kayal             : Wick's Theorem for AUTO-CI, AUTO-CI UHF-CCSDT
   Emily Kempfer          : AUTO-CI, RHF CISDT and CCSDT
   Christian Kollmar      : KDIIS, OOCD, Brueckner-CCSD(T), CCSD density, CASPT2, CASPT2-K, improved NEVPT2
   Axel Koslowski         : Symmetry handling
   Simone Kossmann        : Meta GGA functionals, TD-DFT gradient, OOMP2, (MP2 Hessian; deprecated post 5.0)
   Lucas Lang             : DCDCAS
   Marvin Lechner         : AUTO-CI (C++ implementation), FIC-MRCC
   Spencer Leger          : CASSCF response
   Dagmar Lenk            : GEPOL surface, SMD, ORCA-2-JSON
   Dimitrios Liakos       : Extrapolation schemes; Compound Job, initial MDCI parallelization
   Dimitrios Manganas     : Further ROCIS development; embedding schemes. LFT, Crystal Embedding
   Dimitrios Pantazis     : SARC Basis sets
   Anastasios Papadopoulos: AUTO-CI, single reference methods and gradients
   Taras Petrenko         : pre 6.0 DFT Hessian and TD-DFT gradient, (ASA, deprecated), ECA, 1-Electron XAS/XES, NRVS
   Peter Pinski           : DLPNO-MP2, DLPNO-MP2 Gradient
   Christoph Reimann      : Effective Core Potentials
   Marius Retegan         : Local ZFS, SOC
   Christoph Riplinger    : Optimizer, TS searches, QM/MM, DLPNO-CCSD(T), (RO)-DLPNO pert. Triples
   Michael Roemelt        : Original ROCIS implementation
   Masaaki Saitow         : Open-shell DLPNO-CCSD energy and density
   Barbara Sandhoefer     : DKH picture change effects
   Kantharuban Sivalingam : CASSCF convergence/infrastructure, NEVPT2 and variants, FIC-MRCI
   Bernardo de Souza      : ESD, SOC TD-DFT
   Georgi Stoychev        : AutoAux, RI-MP2 NMR, DLPNO-MP2 response, X2C
   Van Anh Tran           : RI-MP2 g-tensors
   Willem Van den Heuvel  : Paramagnetic NMR
   Zikuan Wang            : NOTCH, Electric field optimization 
   Frank Wennmohs         : Technical directorship and infrastructure
   Hang Xu                : AUTO-CI-Response properties 


 We gratefully acknowledge several colleagues who have allowed us to
 interface, adapt or use parts of their codes:
   Stefan Grimme, W. Hujo, H. Kruse, P. Pracht,  : VdW corrections, initial TS optimization,
                  C. Bannwarth, S. Ehlert,         DFT functionals, gCP, sTDA/sTD-DF
                  L. Wittmann, M. Mueller
   Ed Valeev, F. Pavosevic, A. Kumar             : LibInt (2-el integral package), F12 methods
   Garnet Chan, S. Sharma, J. Yang, R. Olivares  : DMRG
   Ulf Ekstrom                                   : XCFun DFT Library
   Mihaly Kallay                                 : mrcc  (arbitrary order and MRCC methods)
   Frank Weinhold                                : gennbo (NPA and NBO analysis)
   Simon Mueller                                 : openCOSMO-RS
   Christopher J. Cramer and Donald G. Truhlar   : smd solvation model
   Lars Goerigk                                  : TD-DFT with DH, B97 family of functionals
   V. Asgeirsson, H. Jonsson                     : NEB implementation
   FAccTs GmbH                                   : IRC, NEB, NEB-TS, DLPNO-Multilevel, CI-OPT
                                                   MM, QMMM, 2- and 3-layer-ONIOM, Crystal-QMMM,
                                                   LR-CPCM, SF, NACMEs, symmetry and pop. for TD-DFT,
                                                   nearIR, NL-DFT gradient (VV10), updates on ESD,
                                                   ML-optimized integration grids, MBIS, APM,
                                                   GOAT, DOCKER, SOLVATOR, interface openCOSMO-RS
   S Lehtola, MJT Oliveira, MAL Marques          : LibXC Library
   Liviu Ungur et al                             : ANISO software


 Your calculation uses the libint2 library for the computation of 2-el integrals
 For citations please refer to: http://libint.valeyev.net

 Your ORCA version has been built with support for libXC version: 6.2.2
 For citations please refer to: https://libxc.gitlab.io

 This ORCA versions uses:
   CBLAS   interface :  Fast vector & matrix operations
   LAPACKE interface :  Fast linear algebra routines
   SCALAPACK package :  Parallel linear algebra routines
   Shared memory     :  Shared parallel matrices
   BLAS/LAPACK       :  OpenBLAS 0.3.27  USE64BITINT DYNAMIC_ARCH NO_AFFINITY Haswell SINGLE_THREADED
        Core in use  :  Haswell
   Copyright (c) 2011-2014, The OpenBLAS Project


Warning: RI is on but no J-basis has been assigned. Assigning Def2/J (nothing to worry about!)
================================================================================

----- Orbital basis set information -----
Your calculation utilizes the basis: 6-31G**
   H-He, Li-Ne : W. J. Hehre, R. Ditchfield and J.A. Pople, J. Chem. Phys. 56, 2257 (1972).
                 Note: He and Ne are unpublished basis sets taken from the Gaussian program.
                 Note: Li and B from J. D. Dill and J. A. Pople, J. Chem. Phys. 62, 2921 (1975).
   Na - Ar     : M. M. Francl, W. J. Pietro, W. J. Hehre, J. S. Binkley, M. S. Gordon, 
                 D. J. DeFrees and J. A. Pople, J. Chem. Phys. 77, 3654 (1982).
   K - Zn      : V. A. Rassolov, J. A. Pople, M. A. Ratner, and T. L. Windus, J. Chem. Phys. 109, 1223 (1998).

----- AuxJ basis set information -----
Your calculation utilizes the auxiliary basis: def2/J
   F. Weigend, Phys. Chem. Chem. Phys. 8, 1057 (2006).

================================================================================
                                        WARNINGS
                       Please study these warnings very carefully!
================================================================================

INFO   : Checking CIS options ...

INFO   : Since TDDFT/CIS Mode == RPA_AOINTS, the TAMMDANCOFF/TDA keyword is ignored. 


WARNING: CIS/ROCIS methods need fully converged wavefunctions
  ===> : Setting SCFConvForced true
         You can overwrite this default with %scf ConvForced false 


================================================================================
                                       INPUT FILE
================================================================================
NAME = 2fluorocyclohexanone_4.inp
|  1> !PAL8
|  2> !PBE0 6-31G** printbasis printmos
|  3> %tddft
|  4> tda false
|  5> nroots=25
|  6> end
|  7> *xyz 0 1
|  8> C       0.238900    1.546900   -0.113900
|  9> C      -1.059800    1.228200    0.613000
| 10> C      -1.859600    0.120900   -0.076300
| 11> C      -0.991500   -0.855000   -0.874000
| 12> C       0.393000   -1.029600   -0.266600
| 13> C       1.110900    0.309400   -0.176400
| 14> O       2.344300    0.394400   -0.145700
| 15> F       0.263200   -1.608000    0.966200
| 16> H       0.780400    2.331700    0.424500
| 17> H       0.045900    1.891800   -1.134900
| 18> H      -1.677400    2.129000    0.701400
| 19> H      -0.826800    0.907500    1.636700
| 20> H      -2.430900   -0.425600    0.684000
| 21> H      -2.600000    0.564700   -0.752800
| 22> H      -1.503300   -1.822200   -0.932400
| 23> H      -0.890600   -0.481000   -1.900800
| 24> H       0.989200   -1.703700   -0.890000
| 25> *
| 26> 
| 27>                          ****END OF INPUT****
================================================================================

                       ****************************
                       * Single Point Calculation *
                       ****************************

---------------------------------
CARTESIAN COORDINATES (ANGSTROEM)
---------------------------------
  C      0.238900    1.546900   -0.113900
  C     -1.059800    1.228200    0.613000
  C     -1.859600    0.120900   -0.076300
  C     -0.991500   -0.855000   -0.874000
  C      0.393000   -1.029600   -0.266600
  C      1.110900    0.309400   -0.176400
  O      2.344300    0.394400   -0.145700
  F      0.263200   -1.608000    0.966200
  H      0.780400    2.331700    0.424500
  H      0.045900    1.891800   -1.134900
  H     -1.677400    2.129000    0.701400
  H     -0.826800    0.907500    1.636700
  H     -2.430900   -0.425600    0.684000
  H     -2.600000    0.564700   -0.752800
  H     -1.503300   -1.822200   -0.932400
  H     -0.890600   -0.481000   -1.900800
  H      0.989200   -1.703700   -0.890000

----------------------------
CARTESIAN COORDINATES (A.U.)
----------------------------
  NO LB      ZA    FRAG     MASS         X           Y           Z
   0 C     6.0000    0    12.011    0.451456    2.923217   -0.215240
   1 C     6.0000    0    12.011   -2.002732    2.320962    1.158402
   2 C     6.0000    0    12.011   -3.514135    0.228468   -0.144186
   3 C     6.0000    0    12.011   -1.873663   -1.615716   -1.651621
   4 C     6.0000    0    12.011    0.742662   -1.945662   -0.503801
   5 C     6.0000    0    12.011    2.099297    0.584681   -0.333348
   6 O     8.0000    0    15.999    4.430085    0.745308   -0.275333
   7 F     9.0000    0    18.998    0.497376   -3.038680    1.825853
   8 H     1.0000    0     1.008    1.474742    4.406274    0.802189
   9 H     1.0000    0     1.008    0.086738    3.574984   -2.144650
  10 H     1.0000    0     1.008   -3.169827    4.023227    1.325454
  11 H     1.0000    0     1.008   -1.562426    1.714926    3.092915
  12 H     1.0000    0     1.008   -4.593735   -0.804267    1.292573
  13 H     1.0000    0     1.008   -4.913288    1.067128   -1.422586
  14 H     1.0000    0     1.008   -2.840825   -3.443459   -1.761981
  15 H     1.0000    0     1.008   -1.682990   -0.908958   -3.591991
  16 H     1.0000    0     1.008    1.869317   -3.219526   -1.681856

--------------------------------
INTERNAL COORDINATES (ANGSTROEM)
--------------------------------
 C      0   0   0     0.000000000000     0.00000000     0.00000000
 C      1   0   0     1.522029891296     0.00000000     0.00000000
 C      2   1   0     1.530009091476   112.48354829     0.00000000
 C      3   2   1     1.530458660010   113.56525854    27.34682759
 C      4   3   2     1.521926466686   112.40391473    31.22134839
 C      1   2   3     1.515155602570   109.86177047   300.32395973
 O      6   1   2     1.236706533499   121.11917587   212.65073879
 F      5   4   3     1.367914631839   108.77585515    64.51638419
 H      1   2   3     1.094992168922   109.70702025   180.85264074
 H      1   2   3     1.094826931528   111.15718737    60.65265430
 H      2   1   3     1.095757710445   110.32341441   237.19072622
 H      2   1   3     1.097770094328   108.99149852   120.55051379
 H      3   2   1     1.096860077676   108.69768566   149.90013431
 H      3   2   1     1.096723688994   109.75146273   265.54937188
 H      4   3   2     1.095821901588   109.00610401   153.67046012
 H      4   3   2     1.097440226163   108.81476840   270.13979282
 H      5   4   3     1.094756963897   109.80361613   182.17866703

---------------------------
INTERNAL COORDINATES (A.U.)
---------------------------
 C      0   0   0     0.000000000000     0.00000000     0.00000000
 C      1   0   0     2.876219662192     0.00000000     0.00000000
 C      2   1   0     2.891298165300   112.48354829     0.00000000
 C      3   2   1     2.892147726707   113.56525854    27.34682759
 C      4   3   2     2.876024218003   112.40391473    31.22134839
 C      1   2   3     2.863229139134   109.86177047   300.32395973
 O      6   1   2     2.337036656345   121.11917587   212.65073879
 F      5   4   3     2.584984028760   108.77585515    64.51638419
 H      1   2   3     2.069235318051   109.70702025   180.85264074
 H      1   2   3     2.068923064630   111.15718737    60.65265430
 H      2   1   3     2.070681981874   110.32341441   237.19072622
 H      2   1   3     2.074484836288   108.99149852   120.55051379
 H      3   2   1     2.072765154040   108.69768566   149.90013431
 H      3   2   1     2.072507416782   109.75146273   265.54937188
 H      4   3   2     2.070803285554   109.00610401   153.67046012
 H      4   3   2     2.073861475796   108.81476840   270.13979282
 H      5   4   3     2.068790844968   109.80361613   182.17866703

---------------------
BASIS SET INFORMATION
---------------------
There are 4 groups of distinct atoms

 Group   1 Type C   : 10s4p1d contracted to 3s2p1d pattern {631/31/1}
 Group   2 Type O   : 10s4p1d contracted to 3s2p1d pattern {631/31/1}
 Group   3 Type F   : 10s4p1d contracted to 3s2p1d pattern {631/31/1}
 Group   4 Type H   : 4s1p contracted to 2s1p pattern {31/1}

Atom   0C    basis set group =>   1
Atom   1C    basis set group =>   1
Atom   2C    basis set group =>   1
Atom   3C    basis set group =>   1
Atom   4C    basis set group =>   1
Atom   5C    basis set group =>   1
Atom   6O    basis set group =>   2
Atom   7F    basis set group =>   3
Atom   8H    basis set group =>   4
Atom   9H    basis set group =>   4
Atom  10H    basis set group =>   4
Atom  11H    basis set group =>   4
Atom  12H    basis set group =>   4
Atom  13H    basis set group =>   4
Atom  14H    basis set group =>   4
Atom  15H    basis set group =>   4
Atom  16H    basis set group =>   4

-------------------------
BASIS SET IN INPUT FORMAT
-------------------------

 # Basis set for element : H 
 NewGTO H 
 S 3 
   1      18.7311370000      0.0334945995
   2       2.8253937000      0.2347269467
   3       0.6401217000      0.8137573184
 S 1 
   1       0.1612778000      1.0000000000
 P 1 
   1       1.1000000000      1.0000000000
  end;

 # Basis set for element : C 
 NewGTO C 
 S 6 
   1    3047.5249000000      0.0018347002
   2     457.3695100000      0.0140373012
   3     103.9486900000      0.0688426061
   4      29.2101550000      0.2321844206
   5       9.2866630000      0.4679413416
   6       3.1639270000      0.3623120322
 S 3 
   1       7.8682724000     -0.1193324086
   2       1.8812885000     -0.1608542116
   3       0.5442493000      1.1434564826
 P 3 
   1       7.8682724000      0.0689990956
   2       1.8812885000      0.3164239798
   3       0.5442493000      0.7443082524
 S 1 
   1       0.1687144000      1.0000000000
 P 1 
   1       0.1687144000      1.0000000000
 D 1 
   1       0.8000000000      1.0000000000
  end;

 # Basis set for element : O 
 NewGTO O 
 S 6 
   1    5484.6717000000      0.0018310998
   2     825.2349500000      0.0139500985
   3     188.0469600000      0.0684450927
   4      52.9645000000      0.2327142753
   5      16.8975700000      0.4701929501
   6       5.7996353000      0.3585208619
 S 3 
   1      15.5396160000     -0.1107775038
   2       3.5999336000     -0.1480263051
   3       1.0137618000      1.1307670390
 P 3 
   1      15.5396160000      0.0708742995
   2       3.5999336000      0.3397527978
   3       1.0137618000      0.7271585953
 S 1 
   1       0.2700058000      1.0000000000
 P 1 
   1       0.2700058000      1.0000000000
 D 1 
   1       0.8000000000      1.0000000000
  end;

 # Basis set for element : F 
 NewGTO F 
 S 6 
   1    7001.7130900000      0.0018196200
   2    1051.3660900000      0.0139160800
   3     239.2856900000      0.0684053199
   4      67.3974453000      0.2331857596
   5      21.5199573000      0.4712674391
   6       7.4031013000      0.3566185493
 S 3 
   1      20.8479528000     -0.1085069803
   2       4.8083083400     -0.1464516604
   3       1.3440698600      1.1286885835
 P 3 
   1      20.8479528000      0.0716287200
   2       4.8083083400      0.3459121001
   3       1.3440698600      0.7224699603
 S 1 
   1       0.3581513900      1.0000000000
 P 1 
   1       0.3581513900      1.0000000000
 D 1 
   1       0.8000000000      1.0000000000
  end;

---------------------------------
AUXILIARY/J BASIS SET INFORMATION
---------------------------------
There are 4 groups of distinct atoms

 Group   1 Type C   : 12s5p4d2f1g contracted to 6s4p3d1f1g pattern {711111/2111/211/2/1}
 Group   2 Type O   : 12s5p4d2f1g contracted to 6s4p3d1f1g pattern {711111/2111/211/2/1}
 Group   3 Type F   : 12s5p4d2f1g contracted to 6s4p3d1f1g pattern {711111/2111/211/2/1}
 Group   4 Type H   : 5s2p1d contracted to 3s1p1d pattern {311/2/1}

Atom   0C    basis set group =>   1
Atom   1C    basis set group =>   1
Atom   2C    basis set group =>   1
Atom   3C    basis set group =>   1
Atom   4C    basis set group =>   1
Atom   5C    basis set group =>   1
Atom   6O    basis set group =>   2
Atom   7F    basis set group =>   3
Atom   8H    basis set group =>   4
Atom   9H    basis set group =>   4
Atom  10H    basis set group =>   4
Atom  11H    basis set group =>   4
Atom  12H    basis set group =>   4
Atom  13H    basis set group =>   4
Atom  14H    basis set group =>   4
Atom  15H    basis set group =>   4
Atom  16H    basis set group =>   4

-------------------------------------
AUXILIARY/J BASIS SET IN INPUT FORMAT
-------------------------------------

 # Auxiliary/J basis set for element : H 
 NewAuxJGTO H 
 S 3 
   1      15.6752927000      0.1007184237
   2       3.6063578000      0.3404257499
   3       1.2080016000      0.6491996172
 S 1 
   1       0.4726794000      1.0000000000
 S 1 
   1       0.2018100000      1.0000000000
 P 2 
   1       2.0281365000      0.5596620919
   2       0.5358730000      0.5596620919
 D 1 
   1       2.2165124000      1.0000000000
  end;

 # Auxiliary/J basis set for element : C 
 NewAuxJGTO C 
 S 7 
   1    1861.0916331000      0.0134602335
   2     642.9939764000      0.0299160374
   3     235.1105725000      0.1008649584
   4      90.7028894000      0.2370970548
   5      36.7794552000      0.3924037254
   6      15.6046273000      0.3195862154
   7       6.8907294000      0.0530104441
 S 1 
   1       3.1478850000     -1.0000000000
 S 1 
   1       1.4777287000      1.0000000000
 S 1 
   1       0.7076466000      1.0000000000
 S 1 
   1       0.3430122000      1.0000000000
 S 1 
   1       0.1669453000      1.0000000000
 P 2 
   1      13.5472892000     -0.6769313712
   2       5.4669419000     -0.3779500978
 P 1 
   1       2.1751721000      1.0000000000
 P 1 
   1       0.8582194000      1.0000000000
 P 1 
   1       0.3376720000      1.0000000000
 D 2 
   1       5.9287253000     -0.3533329857
   2       1.9809209000     -0.7456525731
 D 1 
   1       0.8055417000     -1.0000000000
 D 1 
   1       0.3531244000     -1.0000000000
 F 2 
   1       1.6755626000      0.6311076882
   2       0.5997536000      0.4968166032
 G 1 
   1       1.0024600000     -1.0000000000
  end;

 # Auxiliary/J basis set for element : O 
 NewAuxJGTO O 
 S 7 
   1    2876.8216605000      0.0168151159
   2    1004.7443032000      0.0340137548
   3     369.7579954000      0.1194951309
   4     142.9442404000      0.2664627624
   5      57.8366425000      0.4202764046
   6      24.3864983000      0.2765077335
   7      10.6622662000      0.0057008815
 S 1 
   1       4.8070437000     -1.0000000000
 S 1 
   1       2.2210770000      1.0000000000
 S 1 
   1       1.0447795000      1.0000000000
 S 1 
   1       0.4968425000      1.0000000000
 S 1 
   1       0.2371384000      1.0000000000
 P 2 
   1      64.2613382000     -0.2731534179
   2      16.3006076000     -0.8168011598
 P 1 
   1       4.3550542000      1.0000000000
 P 1 
   1       1.2019554000      1.0000000000
 P 1 
   1       0.3354196000      1.0000000000
 D 2 
   1       9.2146611000     -0.4661230638
   2       2.8435251000     -0.6600908911
 D 1 
   1       0.9955759000     -1.0000000000
 D 1 
   1       0.3649441000     -1.0000000000
 F 2 
   1       2.6420115000      0.5931563945
   2       0.7345613000      0.5931563945
 G 1 
   1       1.3931000000     -1.0000000000
  end;

 # Auxiliary/J basis set for element : F 
 NewAuxJGTO F 
 S 7 
   1    3514.9201549000      0.0176189594
   2    1231.2458815000      0.0358663858
   3     454.1367336000      0.1239867649
   4     175.8376258000      0.2758620517
   5      71.2081775000      0.4252764982
   6      30.0316883000      0.2651963387
   7      13.1259023000     -0.0078514564
 S 1 
   1       5.9126861000     -1.0000000000
 S 1 
   1       2.7284431000      1.0000000000
 S 1 
   1       1.2813993000      1.0000000000
 S 1 
   1       0.6082793000      1.0000000000
 S 1 
   1       0.2897894000      1.0000000000
 P 2 
   1      49.3740409000     -0.8404235528
   2      13.4874956000     -0.2331250081
 P 1 
   1       3.9664900000      1.0000000000
 P 1 
   1       1.2226629000     -1.0000000000
 P 1 
   1       0.3830317000      1.0000000000
 D 2 
   1      29.9719140000     -0.2160273306
   2       6.7860915000     -0.8915140390
 D 1 
   1       1.8137313000     -1.0000000000
 D 1 
   1       0.5157840000     -1.0000000000
 F 2 
   1       2.8301877000      0.5762078303
   2       0.9155962000      0.5762078303
 G 1 
   1       1.6097500000     -1.0000000000
  end;



           ************************************************************
           *        Program running with 8 parallel MPI-processes     *
           *              working on a common directory               *
           ************************************************************
------------------------------------------------------------------------------
                             ORCA STARTUP CALCULATIONS
                           -- RI-GTO INTEGRALS CHOSEN --
------------------------------------------------------------------------------
------------------------------------------------------------------------------
                   ___                                                        
                  /   \      - P O W E R E D   B Y -                         
                 /     \                                                     
                 |  |  |   _    _      __       _____    __    __             
                 |  |  |  | |  | |    /  \     |  _  \  |  |  /  |          
                  \  \/   | |  | |   /    \    | | | |  |  | /  /          
                 / \  \   | |__| |  /  /\  \   | |_| |  |  |/  /          
                |  |  |   |  __  | /  /__\  \  |    /   |      \           
                |  |  |   | |  | | |   __   |  |    \   |  |\   \          
                \     /   | |  | | |  |  |  |  | |\  \  |  | \   \       
                 \___/    |_|  |_| |__|  |__|  |_| \__\ |__|  \__/        
                                                                              
                      - O R C A' S   B I G   F R I E N D -                    
                                      &                                       
                       - I N T E G R A L  F E E D E R -                       
                                                                              
 v1 FN, 2020, v2 2021, v3 2022-2024                                           
------------------------------------------------------------------------------


----------------------
SHARK INTEGRAL PACKAGE
----------------------

Number of atoms                             ...     17
Number of basis functions                   ...    157
Number of shells                            ...     75
Maximum angular momentum                    ...      2
Integral batch strategy                     ... SHARK/LIBINT Hybrid
RI-J (if used) integral strategy            ... SPLIT-RIJ (Revised 2003 algorithm where possible)
Printlevel                                  ...      1
Contraction scheme used                     ... SEGMENTED contraction
Prescreening option                         ... SCHWARTZ
   Thresh                                   ... 1.000e-10
   Tcut                                     ... 1.000e-11
   Tpresel                                  ... 1.000e-11 
Coulomb Range Separation                    ... NOT USED
Exchange Range Separation                   ... NOT USED
Multipole approximations                    ... NOT USED
Finite Nucleus Model                        ... NOT USED
CABS basis                                  ... NOT available
Auxiliary Coulomb fitting basis             ... AVAILABLE
   # of basis functions in Aux-J            ...    491
   # of shells in Aux-J                     ...    165
   Maximum angular momentum in Aux-J        ...      4
Auxiliary J/K fitting basis                 ... NOT available
Auxiliary Correlation fitting basis         ... NOT available
Auxiliary 'external' fitting basis          ... NOT available

Checking pre-screening integrals            ... done (  0.0 sec) Dimension = 75
Check shell pair data                       ... done (  0.0 sec)
Shell pair information
Shell pair cut-off parameter TPreSel        ...   1.0e-11
Total number of shell pairs                 ...      2850
Shell pairs after pre-screening             ...      2703
Total number of primitive shell pairs       ...     13890
Primitive shell pairs kept                  ...      9074
          la=0 lb=0:    850 shell pairs
          la=1 lb=0:    989 shell pairs
          la=1 lb=1:    305 shell pairs
          la=2 lb=0:    327 shell pairs
          la=2 lb=1:    196 shell pairs
          la=2 lb=2:     36 shell pairs

Calculating one electron integrals          ... done (  0.0 sec)
Calculating RI/J V-Matrix + Cholesky decomp.... done (  0.0 sec)
Calculating Nuclear repulsion               ... done (  0.0 sec) ENN=    395.958581077873 Eh

Diagonalization of the overlap matrix:
Smallest eigenvalue                        ... 2.290e-03
Time for diagonalization                   ...    0.001 sec
Threshold for overlap eigenvalues          ... 1.000e-07
Number of eigenvalues below threshold      ... 0
Time for construction of square roots      ...    0.000 sec
Total time needed                          ...    0.002 sec

-------------------
DFT GRID GENERATION
-------------------

General Integration Accuracy     IntAcc      ... 4.388
Radial Grid Type                 RadialGrid  ... OptM3 with GC (2021)
Angular Grid (max. ang.)         AngularGrid ... 4 (Lebedev-302)
Angular grid pruning method      GridPruning ... 4 (adaptive)
Weight generation scheme         WeightScheme... mBecke (2022)
Basis function cutoff            BFCut       ... 1.0000e-10
Integration weight cutoff        WCut        ... 1.0000e-14
Partially contracted basis set               ... off
Rotationally invariant grid construction     ... off
Angular grids for H and He will be reduced by one unit

Total number of grid points                  ...    76864
Total number of batches                      ...     1211
Average number of points per batch           ...       63
Average number of grid points per atom       ...     4521

--------------------
COSX GRID GENERATION
--------------------

GRIDX 1
-------
General Integration Accuracy     IntAcc      ... 3.816
Radial Grid Type                 RadialGrid  ... OptM3 with GC (2021)
Angular Grid (max. ang.)         AngularGrid ... 1 (Lebedev-50)
Angular grid pruning method      GridPruning ... 4 (adaptive)
Weight generation scheme         WeightScheme... mBecke (2022)
Basis function cutoff            BFCut       ... 1.0000e-10
Integration weight cutoff        WCut        ... 1.0000e-14
Partially contracted basis set               ... on
Rotationally invariant grid construction     ... off
Angular grids for H and He will be reduced by one unit

Total number of grid points                  ...     9812
Total number of batches                      ...       89
Average number of points per batch           ...      110
Average number of grid points per atom       ...      577
UseSFitting                                  ... on

GRIDX 2
-------
General Integration Accuracy     IntAcc      ... 4.020
Radial Grid Type                 RadialGrid  ... OptM3 with GC (2021)
Angular Grid (max. ang.)         AngularGrid ... 2 (Lebedev-110)
Angular grid pruning method      GridPruning ... 4 (adaptive)
Weight generation scheme         WeightScheme... mBecke (2022)
Basis function cutoff            BFCut       ... 1.0000e-10
Integration weight cutoff        WCut        ... 1.0000e-14
Partially contracted basis set               ... on
Rotationally invariant grid construction     ... off
Angular grids for H and He will be reduced by one unit

Total number of grid points                  ...    21111
Total number of batches                      ...      174
Average number of points per batch           ...      121
Average number of grid points per atom       ...     1242
UseSFitting                                  ... on

GRIDX 3
-------
General Integration Accuracy     IntAcc      ... 4.338
Radial Grid Type                 RadialGrid  ... OptM3 with GC (2021)
Angular Grid (max. ang.)         AngularGrid ... 3 (Lebedev-194)
Angular grid pruning method      GridPruning ... 4 (adaptive)
Weight generation scheme         WeightScheme... mBecke (2022)
Basis function cutoff            BFCut       ... 1.0000e-10
Integration weight cutoff        WCut        ... 1.0000e-14
Partially contracted basis set               ... on
Rotationally invariant grid construction     ... off
Angular grids for H and He will be reduced by one unit

Total number of grid points                  ...    46305
Total number of batches                      ...      368
Average number of points per batch           ...      125
Average number of grid points per atom       ...     2724
UseSFitting                                  ... on
Initializing property integral containers    ... done (  0.0 sec)

SHARK setup successfully completed in   0.4 seconds

Maximum memory used throughout the entire STARTUP-calculation: 21.8 MB


           ************************************************************
           *        Program running with 8 parallel MPI-processes     *
           *              working on a common directory               *
           ************************************************************
-------------------------------------------------------------------------------
                                 ORCA GUESS
                   Start orbitals & Density for SCF / CASSCF
-------------------------------------------------------------------------------

------------
SCF SETTINGS
------------
Hamiltonian:
 Density Functional     Method          .... DFT(GTOs)
 Exchange Functional    Exchange        .... PBE
   PBE kappa parameter   XKappa         ....  0.804000
   PBE mue parameter    XMuePBE         ....  0.219520
 Correlation Functional Correlation     .... PBE
   PBE beta parameter  CBetaPBE         ....  0.066725
 LDA part of GGA corr.  LDAOpt          .... PW91-LDA
 Gradients option       PostSCFGGA      .... off
 Hybrid DFT is turned on
   Fraction HF Exchange ScalHFX         ....  0.250000
   Scaling of DF-GGA-X  ScalDFX         ....  0.750000
   Scaling of DF-GGA-C  ScalDFC         ....  1.000000
   Scaling of DF-LDA-C  ScalLDAC        ....  1.000000
   Perturbative correction              ....  0.000000
   NL short-range parameter             ....  6.900000
 RI-approximation to the Coulomb term is turned on
   Number of AuxJ basis functions       .... 491
   RIJ-COSX (HFX calculated with COS-X)).... on


General Settings:
 Integral files         IntName         .... 2fluorocyclohexanone_4
 Hartree-Fock type      HFTyp           .... RHF
 Total Charge           Charge          ....    0
 Multiplicity           Mult            ....    1
 Number of Electrons    NEL             ....   62
 Basis Dimension        Dim             ....  157
 Nuclear Repulsion      ENuc            ....    395.9585810779 Eh

Convergence Acceleration:
 AO-DIIS                CNVDIIS         .... on
   Start iteration      DIISMaxIt       ....    12
   Startup error        DIISStart       ....  0.200000
   # of expansion vecs  DIISMaxEq       ....     5
   Bias factor          DIISBfac        ....   1.050
   Max. coefficient     DIISMaxC        ....  10.000
 MO-DIIS                CNVKDIIS        .... off
 Trust-Rad. Augm. Hess. CNVTRAH         .... auto
   Auto Start mean grad. ratio tolernc. ....  1.125000
   Auto Start start iteration           ....    50
   Auto Start num. interpolation iter.  ....    10
   Max. Number of Micro iterations      ....    24
   Max. Number of Macro iterations      .... Maxiter - #DIIS iter
   Number of Davidson start vectors     ....     2
   Converg. threshold    (grad. norm)   ....   5.000e-05
   Grad. Scal. Fac. for Micro threshold ....   0.100
   Minimum threshold for Micro iter.    ....   1.000e-02
   NR start threshold (gradient norm)   ....   1.000e-04
   Initial trust radius                 ....   0.400
   Minimum AH scaling param. (alpha)    ....   1.000
   Maximum AH scaling param. (alpha)    .... 1000.000
   Quad. conv. algorithm                .... NR
   White noise on init. David. guess    .... on
   Maximum white noise                  ....   0.010
   Pseudo random numbers                .... off
   Inactive MOs                         .... canonical
   Orbital update algorithm             .... Taylor
   Preconditioner                       .... Diag
   Full preconditioner red. dimension   ....   250
 SOSCF                  CNVSOSCF        .... on
   Start iteration      SOSCFMaxIt      ....   150
   Startup grad/error   SOSCFStart      ....  0.003300
   Hessian update       SOSCFHessUp     .... L-BFGS
 Level Shifting         CNVShift        .... on
   Level shift para.    LevelShift      ....    0.2500
   Turn off err/grad.   ShiftErr        ....    0.0010
 Zerner damping         CNVZerner       .... off
 Static damping         CNVDamp         .... on
   Fraction old density DampFac         ....    0.7000
   Max. Damping (<1)    DampMax         ....    0.9800
   Min. Damping (>=0)   DampMin         ....    0.0000
   Turn off err/grad.   DampErr         ....    0.1000

SCF Procedure:
 Maximum # iterations   MaxIter         ....   125
 SCF integral mode      SCFMode         .... Direct
   Integral package                     .... SHARK and LIBINT hybrid scheme
 Reset frequency        DirectResetFreq ....    20
 Integral Threshold     Thresh          ....  1.000e-10 Eh
 Primitive CutOff       TCut            ....  1.000e-11 Eh

Convergence Tolerance:
 Convergence Check Mode ConvCheckMode   .... Total+1el-Energy
 Convergence forced     ConvForced      .... 1
 Energy Change          TolE            ....  1.000e-06 Eh
 1-El. energy change                    ....  1.000e-03 Eh
 Orbital Gradient       TolG            ....  5.000e-05
 Orbital Rotation angle TolX            ....  5.000e-05
 DIIS Error             TolErr          ....  1.000e-06

------------------------------
INITIAL GUESS: MODEL POTENTIAL
------------------------------
Loading Hartree-Fock densities                     ... done
Calculating cut-offs                               ... done
Initializing the effective Hamiltonian             ... done
Setting up the integral package (SHARK)            ... done
Starting the Coulomb interaction                   ... done (   0.0 sec)
Making the grid                                    ... done (   0.1 sec)
Mapping shells                                     ... done
Starting the XC term evaluation                    ... done (   0.0 sec)
  promolecular density results
     # of electrons  =     61.993729216
     EX              =    -51.489947986
     EC              =     -2.078111557
     EX+EC           =    -53.568059543
Transforming the Hamiltonian                       ... done (   0.0 sec)
Diagonalizing the Hamiltonian                      ... done (   0.0 sec)
Back transforming the eigenvectors                 ... done (   0.0 sec)
Now organizing SCF variables                       ... done
                      ------------------
                      INITIAL GUESS DONE (   0.1 sec)
                      ------------------
             **** ENERGY FILE WAS UPDATED (2fluorocyclohexanone_4.en.tmp) ****
Finished Guess after   0.2 sec
Maximum memory used throughout the entire GUESS-calculation: 12.1 MB


           ************************************************************
           *        Program running with 8 parallel MPI-processes     *
           *              working on a common directory               *
           ************************************************************

-------------------------------------------------------------------------------------------
                                      ORCA LEAN-SCF
                              memory conserving SCF solver
-------------------------------------------------------------------------------------------

----------------------------------------D-I-I-S--------------------------------------------
Iteration    Energy (Eh)           Delta-E    RMSDP     MaxDP     DIISErr   Damp  Time(sec)
-------------------------------------------------------------------------------------------
               ***  Starting incremental Fock matrix formation  ***
    1    -408.4666942337906335     0.00e+00  2.88e-03  8.97e-02  2.32e-01  0.700   0.3
    2    -408.5579304258741900    -9.12e-02  1.98e-03  5.52e-02  9.51e-02  0.700   0.2
                               ***Turning on AO-DIIS***
    3    -408.5936697283506760    -3.57e-02  8.51e-04  1.39e-02  3.47e-02  0.700   0.2
    4    -408.6155076548868124    -2.18e-02  1.40e-03  2.40e-02  1.74e-02  0.000   0.2
    5    -408.6634129042017207    -4.79e-02  2.49e-04  4.37e-03  4.87e-03  0.000   0.2
                              *** Initializing SOSCF ***
---------------------------------------S-O-S-C-F--------------------------------------
Iteration    Energy (Eh)           Delta-E    RMSDP     MaxDP     MaxGrad    Time(sec)
--------------------------------------------------------------------------------------
    6    -408.6636319868673013    -2.19e-04  7.83e-05  1.38e-03  1.09e-03     0.2
               *** Restarting incremental Fock matrix formation ***
    7    -408.6636743499900035    -4.24e-05  5.10e-05  8.43e-04  1.36e-04     0.3
    8    -408.6636747455600585    -3.96e-07  1.52e-05  4.76e-04  1.78e-04     0.2
                 **** Energy Check signals convergence ****

               *****************************************************
               *                     SUCCESS                       *
               *           SCF CONVERGED AFTER   8 CYCLES          *
               *****************************************************

Recomputing exchange energy using gridx3       ... done (    0.409 sec)
Old exchange energy                            :    -13.166805876 Eh
New exchange energy                            :    -13.166840899 Eh
Exchange energy change after final integration :     -0.000035023 Eh
Total energy after final integration           :   -408.663709769 Eh
             **** ENERGY FILE WAS UPDATED (2fluorocyclohexanone_4.en.tmp) ****

----------------
TOTAL SCF ENERGY
----------------

Total Energy       :       -408.66370976873469 Eh          -11120.30489 eV

Components:
Nuclear Repulsion  :        395.95858107787313 Eh           10774.58076 eV
Electronic Energy  :       -804.62225582343319 Eh          -21894.88470 eV
One Electron Energy:      -1343.16122788233861 Eh          -36549.27514 eV
Two Electron Energy:        538.53897205890541 Eh           14654.39044 eV

Virial components:
Potential Energy   :       -815.06326712151622 Eh          -22178.99906 eV
Kinetic Energy     :        406.39955735278153 Eh           11058.69417 eV
Virial Ratio       :          2.00557124724914

DFT components:
N(Alpha)           :       31.000004439548 electrons
N(Beta)            :       31.000004439548 electrons
N(Total)           :       62.000008879095 electrons
E(X)               :      -39.362720608045 Eh       
E(C)               :       -2.084637410948 Eh       
E(XC)              :      -41.447358018993 Eh       

---------------
SCF CONVERGENCE
---------------

  Last Energy change         ...    3.9557e-07  Tolerance :   1.0000e-06
  Last MAX-Density change    ...    4.7636e-04  Tolerance :   1.0000e-05
  Last RMS-Density change    ...    1.5206e-05  Tolerance :   1.0000e-06
  Last DIIS Error            ...    1.0925e-03  Tolerance :   1.0000e-06
  Last Orbital Gradient      ...    1.7835e-04  Tolerance :   5.0000e-05
  Last Orbital Rotation      ...    7.5637e-05  Tolerance :   5.0000e-05


----------------
ORBITAL ENERGIES
----------------

  NO   OCC          E(Eh)            E(eV) 
   0   2.0000     -24.766811      -673.9392 
   1   2.0000     -19.220567      -523.0182 
   2   2.0000     -10.324124      -280.9337 
   3   2.0000     -10.311511      -280.5905 
   4   2.0000     -10.239943      -278.6430 
   5   2.0000     -10.239901      -278.6419 
   6   2.0000     -10.236834      -278.5584 
   7   2.0000     -10.234971      -278.5077 
   8   2.0000      -1.232360       -33.5342 
   9   2.0000      -1.062041       -28.8996 
  10   2.0000      -0.864927       -23.5358 
  11   2.0000      -0.784270       -21.3411 
  12   2.0000      -0.752880       -20.4869 
  13   2.0000      -0.661760       -18.0074 
  14   2.0000      -0.614736       -16.7278 
  15   2.0000      -0.561634       -15.2828 
  16   2.0000      -0.537935       -14.6380 
  17   2.0000      -0.504165       -13.7190 
  18   2.0000      -0.495350       -13.4792 
  19   2.0000      -0.465085       -12.6556 
  20   2.0000      -0.458107       -12.4657 
  21   2.0000      -0.435428       -11.8486 
  22   2.0000      -0.427996       -11.6464 
  23   2.0000      -0.412170       -11.2157 
  24   2.0000      -0.389984       -10.6120 
  25   2.0000      -0.378101       -10.2886 
  26   2.0000      -0.369115       -10.0441 
  27   2.0000      -0.341959        -9.3052 
  28   2.0000      -0.340631        -9.2690 
  29   2.0000      -0.326451        -8.8832 
  30   2.0000      -0.257352        -7.0029 
  31   0.0000      -0.034958        -0.9513 
  32   0.0000       0.084058         2.2873 
  33   0.0000       0.115266         3.1366 
  34   0.0000       0.139320         3.7911 
  35   0.0000       0.144729         3.9383 
  36   0.0000       0.150371         4.0918 
  37   0.0000       0.161323         4.3898 
  38   0.0000       0.179457         4.8833 
  39   0.0000       0.190419         5.1816 
  40   0.0000       0.195716         5.3257 
  41   0.0000       0.204954         5.5771 
*Only the first 10 virtual orbitals were printed.
------------------
MOLECULAR ORBITALS (RHF, ROHF)
------------------
                      0         1         2         3         4         5   
                 -24.76681 -19.22057 -10.32412 -10.31151 -10.23994 -10.23990
                   2.00000   2.00000   2.00000   2.00000   2.00000   2.00000
                  --------  --------  --------  --------  --------  --------
  0C   1s        -0.000035  0.000018 -0.001304 -0.000062  0.675694 -0.730342
  0C   2s        -0.000142  0.000321  0.000337  0.000034  0.027302 -0.027415
  0C   1pz       -0.000027 -0.000076  0.000095 -0.000081 -0.000368  0.000113
  0C   1px       -0.000006 -0.000020  0.000146 -0.000033 -0.000061 -0.000050
  0C   1py       -0.000121  0.000032 -0.000433  0.000211 -0.000140 -0.000324
  0C   3s         0.002370 -0.002549 -0.004200 -0.002650 -0.029599  0.024514
  0C   2pz        0.001246  0.001011  0.000568 -0.000312 -0.000175  0.001439
  0C   2px       -0.000811  0.002260 -0.000489  0.002308  0.000876  0.000493
  0C   2py       -0.000883  0.001775  0.002872  0.001449  0.005725 -0.002238
  0C   1dz2       0.000013 -0.000013 -0.000579 -0.000075  0.000399 -0.000382
  0C   1dxz       0.000006 -0.000018 -0.000116  0.000054  0.000417 -0.000400
  0C   1dyz      -0.000042 -0.000037 -0.000023  0.000090  0.000122 -0.000046
  0C   1dx2y2    -0.000049  0.000397 -0.000021  0.000133 -0.000214  0.000150
  0C   1dxy       0.000080 -0.000255 -0.000832 -0.000033  0.000339 -0.000286
  1C   1s         0.000069  0.000057  0.000315 -0.000409  0.021724 -0.023246
  1C   2s         0.000710  0.000479  0.001368 -0.001361  0.000034 -0.000304
  1C   1pz       -0.000001 -0.000018 -0.000006  0.000057 -0.000046 -0.000201
  1C   1px        0.000078  0.000162  0.000464 -0.000109 -0.000166  0.000120
  1C   1py       -0.000217 -0.000046 -0.000148  0.000355 -0.000135 -0.000044
  1C   3s        -0.002396 -0.000904 -0.004124  0.005224  0.008506 -0.003673
  1C   2pz        0.000012 -0.000522  0.000842 -0.001795 -0.002010  0.000430
  1C   2px       -0.001721 -0.000512 -0.002145  0.001453  0.003700 -0.002440
  1C   2py        0.000955  0.001652  0.003196 -0.002050 -0.000572 -0.000983
  1C   1dz2      -0.000020  0.000076  0.000080  0.000055  0.000178 -0.000075
  1C   1dxz       0.000008 -0.000048  0.000006  0.000008  0.000376 -0.000397
  1C   1dyz       0.000037 -0.000044 -0.000072  0.000036  0.000062 -0.000114
  1C   1dx2y2    -0.000030 -0.000030 -0.000017  0.000068 -0.000318  0.000335
  1C   1dxy      -0.000038  0.000021  0.000110  0.000067 -0.000210  0.000338
  2C   1s         0.000019 -0.000063 -0.000169 -0.000221 -0.014666 -0.010947
  2C   2s         0.000283 -0.000478 -0.000817 -0.000585  0.000037  0.000825
  2C   1pz        0.000021 -0.000005  0.000023 -0.000117 -0.000003 -0.000151
  2C   1px        0.000172  0.000021  0.000066 -0.000370 -0.000107  0.000247
  2C   1py        0.000046  0.000003 -0.000009  0.000212 -0.000303 -0.000011
  2C   3s         0.001007  0.002409  0.005413 -0.002123 -0.008960 -0.006530
  2C   2pz       -0.000373  0.000003 -0.000363  0.000817  0.001078  0.001231
  2C   2px       -0.000123  0.001335  0.003263 -0.000539 -0.003301 -0.001947
  2C   2py       -0.000700  0.000078  0.000253 -0.001866  0.003015  0.000656
  2C   1dz2       0.000030  0.000035  0.000010 -0.000025 -0.000044  0.000002
  2C   1dxz      -0.000060  0.000000 -0.000002  0.000012 -0.000301 -0.000238
  2C   1dyz       0.000001  0.000001 -0.000003  0.000012  0.000419  0.000400
  2C   1dx2y2    -0.000039  0.000116  0.000221  0.000036 -0.000094 -0.000122
  2C   1dxy       0.000081  0.000003  0.000021 -0.000065 -0.000304 -0.000360
  3C   1s         0.000060  0.000058  0.000323  0.001306 -0.730743 -0.675737
  3C   2s         0.000142  0.000581  0.001343 -0.001205 -0.029141 -0.025043
  3C   1pz       -0.000227  0.000052  0.000032 -0.000106  0.000247  0.000273
  3C   1px       -0.000393  0.000254  0.000478 -0.000150 -0.000119  0.000018
  3C   1py        0.000043  0.000096  0.000188 -0.000014 -0.000249  0.000252
  3C   3s        -0.003811 -0.000439 -0.003447  0.010810  0.029687  0.020184
  3C   2pz       -0.001960  0.000408 -0.000637  0.001979  0.003411  0.001364
  3C   2px       -0.000087 -0.000267 -0.001290  0.004984  0.002106  0.000004
  3C   2py        0.000209 -0.001756 -0.003572  0.000923  0.003902  0.000570
  3C   1dz2      -0.000140  0.000069  0.000079  0.000250 -0.000108 -0.000164
  3C   1dxz      -0.000263  0.000068  0.000040 -0.000395  0.000029  0.000016
  3C   1dyz       0.000020 -0.000039 -0.000088  0.000042  0.000319  0.000269
  3C   1dx2y2     0.000009 -0.000013  0.000024 -0.000452  0.000338  0.000254
  3C   1dxy       0.000068 -0.000011 -0.000116  0.000260 -0.000487 -0.000398
  4C   1s        -0.000278  0.000044 -0.007480  0.995523  0.001123  0.000895
  4C   2s        -0.001437  0.000464  0.000320  0.038512  0.000689  0.000864
  4C   1pz        0.001068 -0.000062  0.000014  0.001463  0.000036 -0.000099
  4C   1px        0.000120 -0.000067  0.000005 -0.000233 -0.000132 -0.000122
  4C   1py       -0.000833  0.000085  0.000391 -0.000606 -0.000132  0.000168
  4C   3s         0.012112 -0.003430 -0.004752 -0.036502 -0.007503 -0.005295
  4C   2pz        0.005990 -0.001013 -0.000707  0.001596  0.000937  0.000683
  4C   2px       -0.002507  0.002582  0.000884  0.002322  0.004543  0.000443
  4C   2py        0.000248 -0.002187 -0.002360 -0.007704 -0.000398 -0.000154
  4C   1dz2       0.000672 -0.000086 -0.000541  0.000770 -0.000223 -0.000112
  4C   1dxz      -0.000084  0.000027  0.000152 -0.000601  0.000373  0.000396
  4C   1dyz      -0.000671  0.000038  0.000054 -0.000221  0.000028 -0.000088
  4C   1dx2y2    -0.000126  0.000311 -0.000258 -0.000252  0.000476  0.000345
  4C   1dxy       0.000146  0.000284  0.000819 -0.000463  0.000053 -0.000046
  5C   1s         0.000052 -0.000275 -0.995299 -0.007519 -0.000982  0.000823
  5C   2s         0.000130 -0.001216 -0.036085 -0.001620 -0.000159  0.001232
  5C   1pz       -0.000052  0.000008 -0.000075  0.000024 -0.000080  0.000029
  5C   1px        0.000244  0.000111 -0.001402  0.000090 -0.000086 -0.000225
  5C   1py        0.000285 -0.000022 -0.000048  0.000421 -0.000388  0.000241
  5C   3s        -0.002621 -0.007710  0.015266  0.012946  0.008922 -0.006013
  5C   2pz       -0.001564 -0.000278  0.000047 -0.000691  0.000735 -0.000533
  5C   2px        0.002278 -0.013452 -0.012508 -0.004177 -0.001883  0.003189
  5C   2py        0.001073 -0.001281 -0.000454 -0.006822  0.005561 -0.003888
  5C   1dz2       0.000134 -0.000127  0.001174  0.000209  0.000176 -0.000225
  5C   1dxz       0.000120  0.000010 -0.000088 -0.000030 -0.000063 -0.000114
  5C   1dyz       0.000232 -0.000078 -0.000034 -0.000033 -0.000026 -0.000037
  5C   1dx2y2     0.000078  0.000529 -0.001517  0.000520  0.000268 -0.000285
  5C   1dxy      -0.000125  0.000098 -0.000220 -0.000526  0.000451 -0.000552
  6O   1s         0.000018 -0.995288 -0.000042  0.000004  0.000019  0.000014
  6O   2s         0.000343 -0.029516 -0.001524 -0.000170  0.000140  0.000399
  6O   1pz       -0.000027  0.000059  0.000005 -0.000022  0.000049  0.000006
  6O   1px       -0.000038  0.002105 -0.000947  0.000111  0.000092 -0.000102
  6O   1py       -0.000042  0.000148 -0.000076 -0.000015  0.000016  0.000013
  6O   3s        -0.001316  0.023806  0.010621 -0.000002 -0.001429 -0.001061
  6O   2pz        0.000305 -0.000194 -0.000289  0.000167 -0.000222  0.000107
  6O   2px        0.000404 -0.007218 -0.005673  0.000218  0.000645  0.000265
  6O   2py        0.000019 -0.000434 -0.000395  0.001076 -0.000766  0.000565
  6O   1dz2       0.000055 -0.000170 -0.001106 -0.000119 -0.000076  0.000128
  6O   1dxz      -0.000040  0.000019  0.000121 -0.000028  0.000022 -0.000044
  6O   1dyz       0.000048 -0.000014  0.000017  0.000016  0.000039 -0.000020
  6O   1dx2y2    -0.000016  0.000412  0.001684 -0.000093 -0.000143  0.000062
  6O   1dxy      -0.000033  0.000048  0.000233 -0.000253  0.000149 -0.000112
  7F   1s         0.995079 -0.000011 -0.000005  0.000033 -0.000007 -0.000003
  7F   2s         0.027565 -0.000339  0.000165  0.000302  0.000125  0.000070
  7F   1pz       -0.001317  0.000008 -0.000036 -0.000077 -0.000081 -0.000071
  7F   1px        0.000123 -0.000008  0.000099  0.000065 -0.000071 -0.000123
  7F   1py        0.000672 -0.000114  0.000146 -0.000091  0.000065 -0.000009
  7F   3s        -0.016008  0.001060  0.000121  0.000916  0.000414  0.000198
  7F   2pz        0.004418 -0.000266 -0.000173  0.001924 -0.000107  0.000050
  7F   2px       -0.000273 -0.000153 -0.000428 -0.000592  0.000146  0.000506
  7F   2py       -0.002401  0.000578 -0.000293 -0.000007 -0.000020  0.000105
  7F   1dz2      -0.000704 -0.000018  0.000134 -0.001578  0.000085  0.000002
  7F   1dxz       0.000114  0.000080  0.000071  0.000388 -0.000148 -0.000211
  7F   1dyz       0.000743 -0.000122 -0.000066  0.001222  0.000045  0.000052
  7F   1dx2y2     0.000208  0.000022  0.000190  0.000207 -0.000184 -0.000195
  7F   1dxy      -0.000017  0.000048 -0.000199 -0.000225  0.000068  0.000054
  8H   1s        -0.000120 -0.000045  0.000161 -0.000074 -0.000455  0.000507
  8H   2s        -0.000086 -0.000801 -0.000664 -0.000167  0.001917 -0.003642
  8H   1pz       -0.000060 -0.000009 -0.000025  0.000067  0.000629 -0.000586
  8H   1px        0.000035  0.000035 -0.000049 -0.000009  0.000525 -0.000510
  8H   1py        0.000059 -0.000117 -0.000073 -0.000077  0.000640 -0.000643
  9H   1s        -0.000006  0.000083  0.000360  0.000239 -0.000080  0.000705
  9H   2s         0.000335  0.000913 -0.000611 -0.000209  0.003585 -0.002795
  9H   1pz       -0.000009  0.000054  0.000077  0.000034 -0.000949  0.001017
  9H   1px        0.000042 -0.000094 -0.000143 -0.000101 -0.000279  0.000224
  9H   1py        0.000025 -0.000090  0.000084 -0.000015 -0.000002 -0.000305
 10H   1s        -0.000062 -0.000078 -0.000105 -0.000029 -0.000265  0.000297
 10H   2s        -0.000620 -0.000718 -0.001638  0.000952  0.000028 -0.000085
 10H   1pz        0.000008  0.000026 -0.000008  0.000068  0.000066  0.000041
 10H   1px       -0.000006 -0.000003 -0.000015  0.000051 -0.000089  0.000101
 10H   1py        0.000045  0.000015  0.000026 -0.000060  0.000090 -0.000072
 11H   1s         0.000239  0.000136  0.000575 -0.000390 -0.000592  0.000268
 11H   2s         0.000650  0.000739  0.000228 -0.000101  0.000251  0.000035
 11H   1pz       -0.000089 -0.000051 -0.000036  0.000095  0.000070 -0.000039
 11H   1px        0.000053  0.000007  0.000118 -0.000081  0.000031 -0.000104
 11H   1py       -0.000030 -0.000051 -0.000132  0.000150 -0.000021  0.000002
 12H   1s        -0.000093 -0.000108 -0.000168 -0.000111  0.000546  0.000364
 12H   2s        -0.000030  0.000098  0.000472 -0.000844  0.000403 -0.000511
 12H   1pz        0.000039 -0.000007 -0.000036  0.000003 -0.000042 -0.000021
 12H   1px        0.000034 -0.000065 -0.000120 -0.000110  0.000120 -0.000004
 12H   1py       -0.000019  0.000038  0.000055  0.000082  0.000054  0.000061
 13H   1s         0.000010 -0.000088 -0.000204  0.000171  0.000313  0.000364
 13H   2s        -0.000339  0.000133  0.000355  0.001034 -0.000663  0.000341
 13H   1pz        0.000017  0.000006  0.000052  0.000006  0.000053  0.000053
 13H   1px        0.000000 -0.000059 -0.000125  0.000108  0.000020  0.000110
 13H   1py        0.000058 -0.000047 -0.000070  0.000010 -0.000081  0.000038
 14H   1s         0.000223 -0.000110 -0.000127 -0.000363  0.000565  0.000581
 14H   2s         0.000133 -0.000802 -0.001576  0.000247 -0.001983 -0.003283
 14H   1pz        0.000023 -0.000012  0.000023 -0.000043 -0.000117 -0.000056
 14H   1px       -0.000107 -0.000003 -0.000011 -0.000091  0.000530  0.000425
 14H   1py        0.000018 -0.000028 -0.000022 -0.000061  0.000987  0.000830
 15H   1s        -0.000060  0.000166  0.000533 -0.000660  0.000137  0.000654
 15H   2s         0.000125  0.000545  0.000261  0.000185 -0.003743 -0.002699
 15H   1pz        0.000105  0.000038  0.000031 -0.000044  0.000814  0.000919
 15H   1px        0.000064  0.000025  0.000098  0.000067 -0.000242 -0.000112
 15H   1py       -0.000021  0.000063  0.000163 -0.000034 -0.000620 -0.000368
 16H   1s        -0.000218 -0.000127  0.000203 -0.000870  0.000283  0.000396
 16H   2s         0.000329 -0.000825 -0.000786  0.003193  0.000082  0.000282
 16H   1pz       -0.000323 -0.000022  0.000035 -0.001004  0.000041  0.000102
 16H   1px        0.000013  0.000022 -0.000111  0.000713 -0.000079 -0.000003
 16H   1py        0.000212  0.000123  0.000027 -0.000639  0.000071  0.000020
                      6         7         8         9        10        11   
                 -10.23683 -10.23497  -1.23236  -1.06204  -0.86493  -0.78427
                   2.00000   2.00000   2.00000   2.00000   2.00000   2.00000
                  --------  --------  --------  --------  --------  --------
  0C   1s        -0.031779  0.003390 -0.001365  0.020760 -0.087569 -0.114132
  0C   2s        -0.002233 -0.000732  0.004313 -0.037220  0.158824  0.211902
  0C   1pz       -0.000133  0.000009  0.000322  0.000521  0.010975  0.022847
  0C   1px        0.000229  0.000408  0.000323 -0.019338 -0.029931 -0.025668
  0C   1py        0.000050  0.000075 -0.001779  0.018184 -0.038123 -0.002710
  0C   3s         0.010381  0.002555 -0.012328 -0.017618  0.132073  0.194728
  0C   2pz        0.002048 -0.000435 -0.005793 -0.004060  0.000338  0.004578
  0C   2px       -0.004387 -0.001080  0.007068 -0.010878 -0.007835 -0.002308
  0C   2py       -0.001468 -0.002008  0.006858 -0.002207 -0.010999 -0.001976
  0C   1dz2       0.000152 -0.000014 -0.000109  0.002648 -0.002363 -0.000320
  0C   1dxz       0.000648 -0.000018 -0.000003  0.000460 -0.003122 -0.003183
  0C   1dyz       0.000083  0.000050  0.000223  0.000033 -0.000775 -0.001163
  0C   1dx2y2    -0.000491 -0.000062  0.000154 -0.000747  0.000180  0.002957
  0C   1dxy      -0.000130  0.000041 -0.000583  0.004743  0.000857  0.000393
  1C   1s         0.993752 -0.049232 -0.001481  0.004103 -0.097689 -0.094485
  1C   2s         0.038241 -0.002737 -0.000411 -0.010660  0.177071  0.174276
  1C   1pz        0.000333  0.000201 -0.000323  0.002227 -0.035269 -0.013032
  1C   1px        0.000129  0.000027  0.000386 -0.005517  0.017376  0.045633
  1C   1py        0.000004  0.000159 -0.000078  0.001342 -0.027086  0.026835
  1C   3s        -0.035971  0.008736  0.010464  0.002426  0.142119  0.154753
  1C   2pz        0.003389 -0.001636 -0.003480  0.001014 -0.003839 -0.005311
  1C   2px       -0.002472 -0.002102  0.008869  0.006006  0.004165  0.009489
  1C   2py        0.003092 -0.003085 -0.003993 -0.009863 -0.009188  0.002423
  1C   1dz2       0.000142  0.000155 -0.000010  0.000013 -0.001498 -0.000958
  1C   1dxz       0.000130 -0.000272 -0.000134  0.000607 -0.001774 -0.004158
  1C   1dyz      -0.000310 -0.000432 -0.000054  0.000207  0.002886 -0.001965
  1C   1dx2y2    -0.000232  0.000077  0.000233 -0.000276  0.001153  0.004415
  1C   1dxy      -0.000747 -0.000576  0.000199 -0.000357  0.003031  0.001394
  2C   1s         0.049203  0.994046 -0.002296  0.002073 -0.096827  0.014979
  2C   2s         0.000670  0.037885  0.002061 -0.002713  0.177591 -0.027932
  2C   1pz       -0.000080 -0.000013 -0.000318  0.000047 -0.004011  0.043183
  2C   1px       -0.000047 -0.000271  0.001305 -0.002456  0.047262 -0.004602
  2C   1py       -0.000268 -0.000047 -0.001585 -0.000393  0.004188  0.069587
  2C   3s         0.010140 -0.033738 -0.004357 -0.011992  0.132234 -0.026394
  2C   2pz        0.000873  0.000070  0.003753  0.001199 -0.002236  0.009606
  2C   2px        0.003395 -0.003784  0.002412 -0.006585  0.006450 -0.000039
  2C   2py        0.002925 -0.000417  0.001704 -0.000548  0.002159  0.009771
  2C   1dz2       0.000136  0.000236 -0.000111  0.000006 -0.002173 -0.000466
  2C   1dxz      -0.000307  0.000082  0.000055  0.000029 -0.000570  0.004567
  2C   1dyz      -0.000586 -0.000721  0.000149 -0.000182  0.004925 -0.000699
  2C   1dx2y2     0.000263  0.000120  0.000072 -0.000532 -0.000039 -0.000692
  2C   1dxy      -0.000492 -0.000014 -0.000592 -0.000107  0.000331  0.007402
  3C   1s        -0.000613 -0.018291 -0.009511  0.002979 -0.096534  0.113051
  3C   2s         0.000286 -0.001482  0.014799 -0.009006  0.175774 -0.210341
  3C   1pz       -0.000212 -0.000234  0.010478 -0.000897  0.029710 -0.008576
  3C   1px       -0.000024 -0.000015  0.012317 -0.004463  0.013862 -0.035786
  3C   1py       -0.000094 -0.000158 -0.003483 -0.002623  0.031458  0.013280
  3C   3s        -0.004698  0.006912  0.026249  0.002324  0.142665 -0.186265
  3C   2pz       -0.001581  0.001450  0.012831  0.000092  0.003905  0.000909
  3C   2px       -0.001153 -0.002423  0.002795  0.003726  0.002990 -0.004863
  3C   2py       -0.001430  0.002723 -0.001040  0.011277  0.011233  0.001738
  3C   1dz2      -0.000113  0.000077  0.000376  0.000148 -0.001500  0.001528
  3C   1dxz      -0.000047  0.000328  0.003547 -0.000293  0.000255 -0.002147
  3C   1dyz       0.000000 -0.000463 -0.000787  0.000057  0.003455  0.000619
  3C   1dx2y2    -0.000039 -0.000065  0.002059 -0.000263  0.001670 -0.004143
  3C   1dxy       0.000108  0.000550 -0.001294  0.000165 -0.002159  0.001369
  4C   1s         0.000096  0.000089 -0.062480  0.015347 -0.069292  0.093930
  4C   2s        -0.001699 -0.001120  0.121353 -0.028950  0.133184 -0.182770
  4C   1pz       -0.000115 -0.000014  0.089236  0.006375 -0.031766  0.053028
  4C   1px        0.000165  0.000460 -0.011113 -0.018879 -0.038591  0.043258
  4C   1py       -0.000428 -0.000096 -0.037280 -0.025172  0.048355 -0.003601
  4C   3s         0.007096  0.003981 -0.009329 -0.011157  0.098626 -0.161965
  4C   2pz        0.001836  0.001302 -0.018785  0.002413 -0.012343  0.024213
  4C   2px       -0.001905 -0.002044  0.007586 -0.012473 -0.007237  0.005467
  4C   2py        0.003561  0.001902 -0.006677  0.000395  0.015536 -0.015420
  4C   1dz2       0.000055  0.000050  0.013784  0.003688 -0.005120  0.003513
  4C   1dxz       0.000041 -0.000013 -0.002458 -0.000881  0.002612 -0.003341
  4C   1dyz      -0.000156 -0.000023 -0.012486 -0.001363  0.001858 -0.000568
  4C   1dx2y2     0.000041 -0.000057 -0.002600  0.000203  0.001245 -0.005265
  4C   1dxy       0.000137 -0.000012  0.001758 -0.004748 -0.000919  0.000174
  5C   1s         0.000183  0.000011 -0.011335  0.116889 -0.043069 -0.006958
  5C   2s        -0.000545  0.000679  0.018364 -0.219274  0.085827  0.011048
  5C   1pz       -0.000069  0.000008  0.003745 -0.003392 -0.003876  0.017839
  5C   1px        0.000237 -0.000057 -0.003871 -0.170228 -0.109535 -0.020109
  5C   1py       -0.000043  0.000026 -0.013788 -0.011915 -0.000335  0.105910
  5C   3s        -0.003469 -0.003891  0.029508 -0.067770  0.046268  0.021709
  5C   2pz       -0.000011 -0.000258  0.009619  0.002409 -0.001323  0.002105
  5C   2px        0.000319  0.003302 -0.014549  0.048082 -0.022758 -0.006920
  5C   2py        0.001992  0.000223 -0.012441  0.003352  0.001281  0.004469
  5C   1dz2       0.000039  0.000121 -0.002539  0.013704 -0.002438 -0.000235
  5C   1dxz      -0.000144  0.000013 -0.000748 -0.001094 -0.000121 -0.001453
  5C   1dyz       0.000045  0.000066 -0.001633 -0.000283  0.001299 -0.000711
  5C   1dx2y2     0.000015 -0.000097 -0.001527 -0.022224 -0.006576 -0.000414
  5C   1dxy      -0.000112 -0.000024  0.002951 -0.002783 -0.001385 -0.008611
  6O   1s        -0.000016  0.000007 -0.005207  0.192748  0.040404  0.006592
  6O   2s        -0.000223  0.000160  0.010476 -0.419764 -0.092978 -0.014750
  6O   1pz        0.000061 -0.000012  0.000490  0.004278 -0.000083  0.004737
  6O   1px       -0.000013  0.000005 -0.005258  0.152102  0.010155 -0.002378
  6O   1py        0.000028  0.000004 -0.001631  0.010515  0.002623  0.024477
  6O   3s         0.000999 -0.001109  0.012976 -0.413031 -0.083633 -0.017460
  6O   2pz       -0.000157  0.000090 -0.001587  0.002039  0.000076  0.002559
  6O   2px       -0.000414  0.000026 -0.002534  0.063748 -0.001642 -0.000255
  6O   2py       -0.000350 -0.000018  0.000879  0.004399  0.000041  0.011667
  6O   1dz2      -0.000034 -0.000037 -0.000224  0.003817 -0.000489 -0.000162
  6O   1dxz      -0.000001 -0.000011  0.000115 -0.000591 -0.000002 -0.000680
  6O   1dyz      -0.000016  0.000001 -0.000202  0.000321  0.000102 -0.000119
  6O   1dx2y2     0.000042  0.000060  0.000477 -0.012421 -0.000080  0.000425
  6O   1dxy       0.000060  0.000010  0.000240 -0.001845 -0.000167 -0.003194
  7F   1s         0.000027  0.000017 -0.223853 -0.015383  0.033407 -0.037262
  7F   2s         0.000473  0.000245  0.475219  0.033786 -0.074474  0.083683
  7F   1pz        0.000001 -0.000020 -0.080045 -0.000295 -0.031527  0.070802
  7F   1px       -0.000024  0.000015  0.007623 -0.002789 -0.008636  0.006694
  7F   1py        0.000076 -0.000023  0.039058 -0.003021  0.023566 -0.024754
  7F   3s        -0.001973 -0.001248  0.525059  0.038155 -0.094866  0.112141
  7F   2pz        0.000455  0.000393 -0.053194 -0.000051 -0.017127  0.040395
  7F   2px        0.000174  0.000157  0.004204 -0.000483 -0.003347  0.002311
  7F   2py       -0.000838 -0.000283  0.027648 -0.001147  0.011423 -0.012754
  7F   1dz2       0.000042 -0.000020  0.009926  0.000103  0.001724 -0.004340
  7F   1dxz      -0.000054 -0.000105 -0.002014 -0.000014  0.000403 -0.000247
  7F   1dyz       0.000143  0.000051 -0.009972  0.000271 -0.002242  0.003120
  7F   1dx2y2     0.000075  0.000035 -0.002693 -0.000230 -0.000746  0.000254
  7F   1dxy       0.000015 -0.000023  0.000914 -0.000292 -0.000294 -0.000008
  8H   1s        -0.000382  0.000038  0.000685 -0.008784  0.037965  0.070817
  8H   2s        -0.000150  0.001051 -0.001046  0.001183  0.005598  0.015714
  8H   1pz       -0.000000 -0.000031  0.000208  0.000739 -0.001829 -0.002893
  8H   1px        0.000048 -0.000033 -0.000148  0.000053 -0.002371 -0.003602
  8H   1py        0.000066  0.000003 -0.000254  0.001502 -0.002934 -0.004792
  9H   1s        -0.000557 -0.000287  0.000635 -0.007401  0.046365  0.066544
  9H   2s         0.000188 -0.000098 -0.001587 -0.002393  0.005933  0.014362
  9H   1pz        0.000000  0.000015  0.000063 -0.001040  0.004214  0.005918
  9H   1px       -0.000013  0.000127 -0.000216 -0.000034  0.000402  0.000869
  9H   1py        0.000026  0.000097 -0.000236  0.000356 -0.002000 -0.001767
 10H   1s        -0.000841 -0.000331  0.000472 -0.000681  0.044560  0.057795
 10H   2s         0.003507 -0.000188  0.003435  0.005534  0.008138  0.015857
 10H   1pz       -0.000065  0.000007  0.000068 -0.000037 -0.000729 -0.000547
 10H   1px       -0.000832 -0.000009  0.000045 -0.000098  0.002714  0.003531
 10H   1py        0.001203  0.000025 -0.000235  0.000048 -0.003880 -0.004115
 11H   1s        -0.000435 -0.000402 -0.000231 -0.003105  0.048865  0.054829
 11H   2s         0.004709 -0.000036  0.001620 -0.002489  0.001922  0.014925
 11H   1pz        0.001151 -0.000037 -0.000037  0.000392 -0.004770 -0.004886
 11H   1px        0.000434 -0.000037 -0.000127 -0.000148 -0.000833 -0.000625
 11H   1py       -0.000610 -0.000061  0.000006  0.000194  0.001179  0.002056
 12H   1s        -0.000490 -0.000703  0.000681 -0.000332  0.045859 -0.010395
 12H   2s         0.000428  0.004330  0.001139 -0.001070  0.006414 -0.002674
 12H   1pz        0.000122  0.001034 -0.000248  0.000056 -0.003314  0.001162
 12H   1px       -0.000083 -0.000541 -0.000021  0.000089  0.002926 -0.000661
 12H   1py       -0.000066 -0.000763  0.000136 -0.000120  0.002336  0.000377
 13H   1s        -0.000681 -0.000722  0.000569 -0.000312  0.046458 -0.007596
 13H   2s         0.000091  0.004190  0.003638 -0.000367  0.006021  0.000688
 13H   1pz       -0.000058 -0.000951  0.000055 -0.000069  0.002855  0.000126
 13H   1px       -0.000139 -0.000804  0.000134  0.000112  0.003662 -0.000324
 13H   1py        0.000097  0.000667 -0.000241  0.000115 -0.001802  0.001142
 14H   1s         0.000009 -0.000304  0.002221 -0.000129  0.043878 -0.069611
 14H   2s        -0.000012 -0.000036  0.000406  0.005971  0.007753 -0.016662
 14H   1pz        0.000097  0.000013  0.000113  0.000022  0.000467 -0.000511
 14H   1px       -0.000016 -0.000045  0.000678  0.000002  0.002224 -0.003463
 14H   1py        0.000009 -0.000055  0.000491  0.000013  0.004144 -0.005502
 15H   1s         0.000277 -0.000433  0.002012 -0.002936  0.051397 -0.068442
 15H   2s        -0.000246  0.000089  0.000078 -0.002049  0.005225 -0.012975
 15H   1pz        0.000035  0.000013  0.000030 -0.000362  0.004964 -0.005713
 15H   1px        0.000055 -0.000031 -0.000284 -0.000208 -0.000207  0.000154
 15H   1py        0.000012  0.000077 -0.000107 -0.000292 -0.001288  0.002467
 16H   1s         0.000080  0.000077  0.018488 -0.006949  0.030511 -0.062781
 16H   2s         0.001415  0.001208  0.000409  0.001221  0.002735 -0.013971
 16H   1pz        0.000077  0.000016  0.003963 -0.000476  0.001318 -0.002677
 16H   1px       -0.000058 -0.000026 -0.002256  0.000123 -0.002005  0.003528
 16H   1py        0.000040  0.000035  0.001594 -0.001217  0.001959 -0.003388
                     12        13        14        15        16        17   
                  -0.75288  -0.66176  -0.61474  -0.56163  -0.53794  -0.50417
                   2.00000   2.00000   2.00000   2.00000   2.00000   2.00000
                  --------  --------  --------  --------  --------  --------
  0C   1s        -0.074376  0.083270  0.008455 -0.055828  0.006405  0.009435
  0C   2s         0.138279 -0.159082 -0.014779  0.108276 -0.011294 -0.015549
  0C   1pz       -0.015629  0.047866 -0.060664 -0.059080  0.080779  0.129346
  0C   1px        0.048436 -0.077605  0.099494  0.032409  0.051459  0.170596
  0C   1py       -0.035612 -0.020844 -0.094731  0.133771 -0.061209 -0.018392
  0C   3s         0.136482 -0.179742 -0.021515  0.146059 -0.030114 -0.021059
  0C   2pz       -0.004615  0.014610 -0.020119 -0.023729  0.028735  0.075215
  0C   2px        0.003581 -0.020788  0.028030  0.011435  0.026629  0.081201
  0C   2py       -0.009983 -0.000594 -0.026321  0.044606 -0.016146  0.011556
  0C   1dz2      -0.000868 -0.001643 -0.003371  0.004407 -0.003074 -0.003468
  0C   1dxz       0.001234 -0.004762  0.004107  0.005344 -0.000434 -0.000899
  0C   1dyz       0.000811 -0.001694  0.000502  0.001416 -0.001627  0.002797
  0C   1dx2y2    -0.005349  0.002358 -0.006909  0.001696 -0.002220 -0.001216
  0C   1dxy      -0.004473  0.002228 -0.005867  0.002312 -0.000484 -0.005114
  1C   1s         0.053149 -0.088894  0.080457  0.044274  0.002314 -0.005514
  1C   2s        -0.098930  0.167129 -0.155677 -0.086106 -0.010652  0.012753
  1C   1pz        0.003163  0.043954 -0.054679 -0.069576  0.064323  0.181728
  1C   1px        0.081008 -0.067892 -0.042430 -0.025915  0.058640 -0.013532
  1C   1py        0.043634 -0.015585 -0.101293  0.025336 -0.072815 -0.004005
  1C   3s        -0.095398  0.186894 -0.172683 -0.104089  0.009606  0.018475
  1C   2pz        0.005643  0.014529 -0.020955 -0.016422  0.026251  0.075682
  1C   2px        0.015430 -0.012177 -0.011968 -0.013115  0.041114 -0.013022
  1C   2py        0.008143 -0.009803 -0.036086  0.017513 -0.044432  0.004013
  1C   1dz2       0.000392  0.000023 -0.001205 -0.002414  0.000091 -0.001593
  1C   1dxz      -0.005844  0.004379  0.002626 -0.000647  0.000202  0.004753
  1C   1dyz      -0.003854  0.000407  0.005045 -0.000423 -0.000909 -0.004440
  1C   1dx2y2     0.004213 -0.002901  0.000112  0.001229 -0.000193  0.001224
  1C   1dxy      -0.003936 -0.001842  0.003892  0.006822 -0.000545 -0.000504
  2C   1s         0.125620 -0.012695 -0.095162 -0.052865  0.008108 -0.002207
  2C   2s        -0.233983  0.024292  0.183894  0.101954 -0.017693  0.004083
  2C   1pz       -0.004756  0.087435 -0.010733 -0.004533  0.066774  0.098499
  2C   1px        0.005531 -0.006596 -0.069469 -0.108302  0.064902 -0.107807
  2C   1py       -0.006883  0.093555 -0.020025 -0.006920 -0.086549 -0.080799
  2C   3s        -0.214016  0.027039  0.198258  0.133165 -0.022747  0.017424
  2C   2pz       -0.001186  0.023154 -0.002538 -0.006888  0.033552  0.040665
  2C   2px        0.001217 -0.002955 -0.024175 -0.039211  0.028847 -0.044561
  2C   2py        0.000464  0.027525 -0.006779  0.005467 -0.030424 -0.038778
  2C   1dz2      -0.000689 -0.000623  0.001612  0.000245 -0.002116  0.004141
  2C   1dxz      -0.000464  0.005536 -0.000199  0.000824 -0.001038 -0.000241
  2C   1dyz      -0.002714 -0.000293 -0.006197 -0.006445  0.000573 -0.000536
  2C   1dx2y2     0.001949 -0.000431  0.003044 -0.000769  0.001410 -0.003394
  2C   1dxy      -0.000609  0.006200 -0.000916 -0.000476 -0.001544  0.000845
  3C   1s         0.030803  0.092258  0.058753  0.040865 -0.004900 -0.004380
  3C   2s        -0.055885 -0.172877 -0.114351 -0.077008  0.012518  0.013133
  3C   1pz       -0.015042  0.042522  0.051689  0.059185  0.151667 -0.016018
  3C   1px        0.096471  0.060276 -0.074522 -0.033936  0.000990 -0.063427
  3C   1py       -0.034001  0.010024  0.101973 -0.037813 -0.033381 -0.151829
  3C   3s        -0.059870 -0.195068 -0.128159 -0.096779  0.007995 -0.001304
  3C   2pz       -0.006143  0.010574  0.017554  0.028167  0.065480 -0.010822
  3C   2px        0.016170  0.007250 -0.024023 -0.019449 -0.016412 -0.033161
  3C   2py       -0.005728 -0.004208  0.039040 -0.023012 -0.027471 -0.076795
  3C   1dz2      -0.001359 -0.001229 -0.000199 -0.003043  0.002775 -0.002811
  3C   1dxz       0.006322  0.002849 -0.004500  0.000107  0.005824 -0.003876
  3C   1dyz      -0.003478  0.001770  0.005440 -0.000178  0.003095 -0.001044
  3C   1dx2y2     0.004515  0.003471  0.000228  0.001487 -0.000825  0.000270
  3C   1dxy       0.004428 -0.001833 -0.002336 -0.007524  0.001096  0.002006
  4C   1s        -0.091392 -0.081498  0.018156 -0.042428  0.004519  0.006538
  4C   2s         0.181923  0.166892 -0.036220  0.097803 -0.003410 -0.014483
  4C   1pz       -0.016359  0.031491  0.065379  0.070410  0.213683 -0.080633
  4C   1px        0.046755  0.114183  0.101051  0.036391 -0.197287  0.065930
  4C   1py        0.055378  0.012378  0.146616 -0.223755  0.021806 -0.101250
  4C   3s         0.156318  0.168890 -0.038603  0.077704 -0.025006 -0.013493
  4C   2pz       -0.019428 -0.009865  0.026068 -0.012388  0.062965 -0.033352
  4C   2px        0.005755  0.031116  0.025967  0.020430 -0.082017  0.021074
  4C   2py        0.019578  0.021163  0.040708 -0.072959  0.040439 -0.069315
  4C   1dz2      -0.002404  0.001607 -0.002113  0.008524  0.008806 -0.005294
  4C   1dxz       0.000402 -0.003444 -0.001164 -0.005919 -0.004196 -0.000272
  4C   1dyz       0.001887  0.001562  0.002373 -0.007916 -0.005475  0.004096
  4C   1dx2y2    -0.005516 -0.004640 -0.007276 -0.001174  0.003484 -0.000283
  4C   1dxy       0.002987  0.001875  0.003846 -0.003438  0.003738  0.002318
  5C   1s        -0.078978 -0.007970 -0.089857  0.053241  0.003519 -0.055081
  5C   2s         0.160556  0.019434  0.187358 -0.107507 -0.005752  0.122486
  5C   1pz       -0.009732  0.005613 -0.001132 -0.004533  0.093557  0.036816
  5C   1px       -0.137188  0.000902 -0.091930  0.056748 -0.035269  0.080348
  5C   1py       -0.023637 -0.177371 -0.015596  0.058139  0.093798  0.108007
  5C   3s         0.117032  0.005902  0.176820 -0.119517 -0.017526  0.118476
  5C   2pz       -0.002142  0.007156 -0.000705  0.000650  0.044745  0.009431
  5C   2px       -0.038112 -0.000093 -0.048249  0.041453 -0.015327 -0.014701
  5C   2py       -0.002995 -0.030122 -0.007822  0.016554  0.034737  0.022183
  5C   1dz2      -0.003348 -0.000394 -0.001619 -0.000783 -0.000410 -0.000557
  5C   1dxz       0.000172 -0.001297  0.000176 -0.000139 -0.001943 -0.000772
  5C   1dyz       0.001184  0.000479 -0.001917 -0.002352 -0.003084  0.005266
  5C   1dx2y2    -0.011990 -0.001980 -0.005585 -0.006365  0.003837 -0.004766
  5C   1dxy      -0.000381  0.005719 -0.000226 -0.001885  0.003741 -0.000729
  6O   1s         0.054615  0.004448  0.048539 -0.016459 -0.012575  0.056868
  6O   2s        -0.127246 -0.011105 -0.114159  0.039000  0.027791 -0.132166
  6O   1pz       -0.002177  0.001400 -0.000658 -0.002905  0.055300  0.017948
  6O   1px       -0.014845 -0.000404 -0.074735  0.043555  0.024645 -0.212049
  6O   1py       -0.003788 -0.062385 -0.008108  0.028142  0.063380  0.045854
  6O   3s        -0.130933 -0.009963 -0.139094  0.044831  0.051963 -0.198581
  6O   2pz       -0.000892 -0.000640 -0.000005 -0.001846  0.027567  0.011423
  6O   2px       -0.013128 -0.002174 -0.040634  0.025116  0.008348 -0.112972
  6O   2py       -0.002771 -0.031251 -0.003984  0.014410  0.032596  0.027038
  6O   1dz2      -0.002008 -0.000402 -0.003386  0.001109  0.000907 -0.006611
  6O   1dxz       0.000308 -0.000192  0.000176  0.000242 -0.004956 -0.001620
  6O   1dyz       0.000146  0.000139 -0.000041 -0.000162 -0.000704  0.000289
  6O   1dx2y2     0.001500 -0.000414  0.004198 -0.002382 -0.000137  0.009433
  6O   1dxy       0.000656  0.006566  0.000846 -0.002530 -0.004684 -0.003879
[...]
  0-1A  ->  6-1A    7.958993   64193.6   155.8   0.004312532   0.02212  -0.11743   0.02849  -0.08669
  0-1A  ->  7-1A    8.181520   65988.4   151.5   0.001783400   0.00890   0.02055  -0.08543   0.03430
  0-1A  ->  8-1A    8.612234   69462.4   144.0   0.023317947   0.11051  -0.32518  -0.06907  -0.00062
  0-1A  ->  9-1A    8.777000   70791.3   141.3   0.082982794   0.38591  -0.60248   0.14517  -0.04311
  0-1A  -> 10-1A    9.036801   72886.7   137.2   0.000788723   0.00356   0.02702   0.04341  -0.03079
  0-1A  -> 11-1A    9.206808   74257.9   134.7   0.007820960   0.03467   0.10495   0.04937  -0.14568
  0-1A  -> 12-1A    9.539380   76940.3   130.0   0.005759072   0.02464   0.00166   0.15287  -0.03565
  0-1A  -> 13-1A    9.575835   77234.3   129.5   0.048316771   0.20595  -0.37191  -0.25961   0.01540
  0-1A  -> 14-1A    9.774800   78839.1   126.8   0.017426159   0.07277  -0.21292   0.16252   0.03189
  0-1A  -> 15-1A    9.860257   79528.3   125.7   0.014218426   0.05886   0.23318  -0.05373  -0.03999
  0-1A  -> 16-1A    9.934663   80128.5   124.8   0.019655411   0.08076   0.27504   0.05195  -0.04907
  0-1A  -> 17-1A    9.967105   80390.1   124.4   0.010027785   0.04107  -0.16894   0.11189   0.00220
  0-1A  -> 18-1A   10.105464   81506.1   122.7   0.003023244   0.01221  -0.04847   0.09928   0.00234
  0-1A  -> 19-1A   10.201191   82278.2   121.5   0.020854042   0.08344  -0.25484  -0.13581  -0.00707
  0-1A  -> 20-1A   10.212809   82371.9   121.4   0.091191896   0.36446  -0.05103  -0.55562  -0.23052
  0-1A  -> 21-1A   10.295687   83040.3   120.4   0.005051994   0.02003  -0.02875  -0.13762  -0.01625
  0-1A  -> 22-1A   10.533909   84961.7   117.7   0.007697749   0.02983  -0.16928  -0.02404  -0.02436
  0-1A  -> 23-1A   10.688923   86212.0   116.0   0.017584565   0.06715   0.22197  -0.10838   0.07832
  0-1A  -> 24-1A   10.911394   88006.3   113.6   0.012413333   0.04644  -0.20360   0.06849   0.01715
  0-1A  -> 25-1A   11.028705   88952.5   112.4   0.009888674   0.03660  -0.09284   0.03029   0.16450

----------------------------------------------------------------------------------------------------
                     ABSORPTION SPECTRUM VIA TRANSITION VELOCITY DIPOLE MOMENTS    
----------------------------------------------------------------------------------------------------
     Transition      Energy     Energy  Wavelength fosc(P2)      P2        PX        PY        PZ   
                      (eV)      (cm-1)    (nm)                 (au**2)    (au)      (au)      (au)  
----------------------------------------------------------------------------------------------------
  0-1A  ->  1-1A    3.738437   30152.5   331.6   0.000032504   0.00001   0.00176   0.00035  -0.00187
  0-1A  ->  2-1A    6.485141   52306.2   191.2   0.001442155   0.00052  -0.01073  -0.01998   0.00113
  0-1A  ->  3-1A    6.839499   55164.3   181.3   0.001390546   0.00052  -0.02087   0.00895  -0.00293
  0-1A  ->  4-1A    7.182252   57928.8   172.6   0.005382334   0.00213  -0.04294   0.01622   0.00491
  0-1A  ->  5-1A    7.855865   63361.8   157.8   0.023504491   0.01018   0.09963  -0.01331   0.00866
  0-1A  ->  6-1A    7.958993   64193.6   155.8   0.005050247   0.00222   0.03970  -0.00639   0.02447
  0-1A  ->  7-1A    8.181520   65988.4   151.5   0.001860985   0.00084  -0.00334   0.02250  -0.01794
  0-1A  ->  8-1A    8.612234   69462.4   144.0   0.021186492   0.01006   0.09622   0.02606  -0.01098
  0-1A  ->  9-1A    8.777000   70791.3   141.3   0.073726653   0.03567   0.18296  -0.04434   0.01521
  0-1A  -> 10-1A    9.036801   72886.7   137.2   0.000615283   0.00031  -0.00203  -0.01451   0.00958
  0-1A  -> 11-1A    9.206808   74257.9   134.7   0.007232876   0.00367  -0.03452  -0.01556   0.04729
  0-1A  -> 12-1A    9.539380   76940.3   130.0   0.010979190   0.00577   0.00041  -0.07287   0.02151
  0-1A  -> 13-1A    9.575835   77234.3   129.5   0.047848311   0.02526   0.12990   0.09104  -0.00974
  0-1A  -> 14-1A    9.774800   78839.1   126.8   0.015561526   0.00838   0.07274  -0.05396  -0.01349
  0-1A  -> 15-1A    9.860257   79528.3   125.7   0.017863876   0.00971  -0.09540   0.02162   0.01185
  0-1A  -> 16-1A    9.934663   80128.5   124.8   0.019543461   0.01070  -0.10078  -0.01624   0.01680
  0-1A  -> 17-1A    9.967105   80390.1   124.4   0.011348632   0.00624   0.06487  -0.04475  -0.00495
  0-1A  -> 18-1A   10.105464   81506.1   122.7   0.003355917   0.00187   0.01729  -0.03907  -0.00662
  0-1A  -> 19-1A   10.201191   82278.2   121.5   0.023289014   0.01310   0.10436   0.04687   0.00272
  0-1A  -> 20-1A   10.212809   82371.9   121.4   0.081550965   0.04591   0.00582   0.19611   0.08614
  0-1A  -> 21-1A   10.295687   83040.3   120.4   0.005114895   0.00290   0.01141   0.05118   0.01237
  0-1A  -> 22-1A   10.533909   84961.7   117.7   0.008742832   0.00508   0.06866  -0.00889   0.01685
  0-1A  -> 23-1A   10.688923   86212.0   116.0   0.020340553   0.01198  -0.09097   0.04298  -0.04316
  0-1A  -> 24-1A   10.911394   88006.3   113.6   0.010569981   0.00636   0.07176  -0.03464  -0.00287
  0-1A  -> 25-1A   11.028705   88952.5   112.4   0.009142328   0.00556   0.03626  -0.01028  -0.06433

------------------------------------------------------------------------------------------
                     CD SPECTRUM VIA TRANSITION ELECTRIC DIPOLE MOMENTS    
------------------------------------------------------------------------------------------
     Transition      Energy     Energy  Wavelength    R        MX        MY        MZ   
                      (eV)      (cm-1)    (nm)   (1e40*cgs)   (au)      (au)      (au)  
------------------------------------------------------------------------------------------
  0-1A  ->  1-1A    3.738437   30152.5   331.6  -15.26654  -0.51846  -0.05370  -0.01261
  0-1A  ->  2-1A    6.485141   52306.2   191.2   -1.07929  -0.05915   0.04208   0.00756
  0-1A  ->  3-1A    6.839499   55164.3   181.3    1.37516  -0.05032  -0.10764  -0.04964
  0-1A  ->  4-1A    7.182252   57928.8   172.6   -1.85893   0.03118   0.00392   0.11225
  0-1A  ->  5-1A    7.855865   63361.8   157.8   -2.93858  -0.04777  -0.20863  -0.08923
  0-1A  ->  6-1A    7.958993   64193.6   155.8   -6.21124  -0.12170   0.05291   0.03027
  0-1A  ->  7-1A    8.181520   65988.4   151.5   -5.14241   0.07864  -0.01790   0.22627
  0-1A  ->  8-1A    8.612234   69462.4   144.0   23.48744   0.06135   0.43296  -0.05187
  0-1A  ->  9-1A    8.777000   70791.3   141.3   10.47691  -0.01342  -0.24773  -0.13114
  0-1A  -> 10-1A    9.036801   72886.7   137.2   -0.96366  -0.04406   0.06407  -0.01473
  0-1A  -> 11-1A    9.206808   74257.9   134.7    5.78681  -0.00101  -0.35716  -0.03751
  0-1A  -> 12-1A    9.539380   76940.3   130.0   -4.65212   0.12151   0.01577  -0.20353
  0-1A  -> 13-1A    9.575835   77234.3   129.5   14.89086   0.12206  -0.04054   0.21317
  0-1A  -> 14-1A    9.774800   78839.1   126.8    6.52009   0.11706   0.09841  -0.15360
  0-1A  -> 15-1A    9.860257   79528.3   125.7    4.91704  -0.06834   0.02589  -0.17248
  0-1A  -> 16-1A    9.934663   80128.5   124.8   -9.25771   0.08132  -0.07633  -0.02520
  0-1A  -> 17-1A    9.967105   80390.1   124.4   29.60061   0.30908  -0.09327  -0.06010
  0-1A  -> 18-1A   10.105464   81506.1   122.7  -16.64302  -0.01703   0.34657   0.02902
  0-1A  -> 19-1A   10.201191   82278.2   121.5  -17.47043  -0.03432  -0.20387  -0.08802
  0-1A  -> 20-1A   10.212809   82371.9   121.4  -15.06372   0.22713  -0.30012   0.53448
  0-1A  -> 21-1A   10.295687   83040.3   120.4    2.87333  -0.17420   0.08734  -0.05647
  0-1A  -> 22-1A   10.533909   84961.7   117.7   -9.47693  -0.09159  -0.03781  -0.15141
  0-1A  -> 23-1A   10.688923   86212.0   116.0   17.78631  -0.19849  -0.11398  -0.07689
  0-1A  -> 24-1A   10.911394   88006.3   113.6    9.01353   0.08808  -0.06074   0.17340
  0-1A  -> 25-1A   11.028705   88952.5   112.4  -13.95875   0.02788  -0.26071   0.24373

------------------------------------------------------------------------------------------
                     CD SPECTRUM VIA TRANSITION VELOCITY DIPOLE MOMENTS    
------------------------------------------------------------------------------------------
     Transition      Energy     Energy  Wavelength    R        MX        MY        MZ   
                      (eV)      (cm-1)    (nm)   (1e40*cgs)   (au)      (au)      (au)  
------------------------------------------------------------------------------------------
  0-1A  ->  1-1A    3.738437   30152.5   331.6   -3.10876  -0.51846  -0.05370  -0.01261
  0-1A  ->  2-1A    6.485141   52306.2   191.2   -0.39016  -0.05915   0.04208   0.00756
  0-1A  ->  3-1A    6.839499   55164.3   181.3    0.43529  -0.05032  -0.10764  -0.04964
  0-1A  ->  4-1A    7.182252   57928.8   172.6   -1.29304   0.03118   0.00392   0.11225
  0-1A  ->  5-1A    7.855865   63361.8   157.8   -4.49903  -0.04777  -0.20863  -0.08923
  0-1A  ->  6-1A    7.958993   64193.6   155.8   -7.13847  -0.12170   0.05291   0.03027
  0-1A  ->  7-1A    8.181520   65988.4   151.5   -7.40810   0.07864  -0.01790   0.22627
  0-1A  ->  8-1A    8.612234   69462.4   144.0   26.44944   0.06135   0.43296  -0.05187
  0-1A  ->  9-1A    8.777000   70791.3   141.3    9.55236  -0.01342  -0.24773  -0.13114
  0-1A  -> 10-1A    9.036801   72886.7   137.2   -1.39336  -0.04406   0.06407  -0.01473
  0-1A  -> 11-1A    9.206808   74257.9   134.7    5.31922  -0.00101  -0.35716  -0.03751
  0-1A  -> 12-1A    9.539380   76940.3   130.0   -7.36593   0.12151   0.01577  -0.20353
  0-1A  -> 13-1A    9.575835   77234.3   129.5   13.51682   0.12206  -0.04054   0.21317
  0-1A  -> 14-1A    9.774800   78839.1   126.8    6.92652   0.11706   0.09841  -0.15360
  0-1A  -> 15-1A    9.860257   79528.3   125.7    6.55248  -0.06834   0.02589  -0.17248
  0-1A  -> 16-1A    9.934663   80128.5   124.8   -9.52871   0.08132  -0.07633  -0.02520
  0-1A  -> 17-1A    9.967105   80390.1   124.4   31.56268   0.30908  -0.09327  -0.06010
  0-1A  -> 18-1A   10.105464   81506.1   122.7  -17.80931  -0.01703   0.34657   0.02902
  0-1A  -> 19-1A   10.201191   82278.2   121.5  -16.82303  -0.03432  -0.20387  -0.08802
  0-1A  -> 20-1A   10.212809   82371.9   121.4  -14.43985   0.22713  -0.30012   0.53448
  0-1A  -> 21-1A   10.295687   83040.3   120.4    2.22393  -0.17420   0.08734  -0.05647
  0-1A  -> 22-1A   10.533909   84961.7   117.7  -10.35650  -0.09159  -0.03781  -0.15141
  0-1A  -> 23-1A   10.688923   86212.0   116.0   19.77447  -0.19849  -0.11398  -0.07689
  0-1A  -> 24-1A   10.911394   88006.3   113.6    9.31906   0.08808  -0.06074   0.17340
  0-1A  -> 25-1A   11.028705   88952.5   112.4  -13.94426   0.02788  -0.26071   0.24373

Total run time:        5.861 sec

           *** ORCA-CIS/TD-DFT FINISHED WITHOUT ERROR ***
-----------------------
CIS/TD-DFT TOTAL ENERGY
-----------------------

    E(SCF)  =   -408.663709769 Eh
    DE(CIS) =      0.137385031 Eh (Root  1)
    ----------------------------- ---------
    E(tot)  =   -408.526324737 Eh


Maximum memory used throughout the entire CIS-calculation: 160.6 MB
=> NOW LEAVING ORCA_CIS

-------------------------   --------------------
FINAL SINGLE POINT ENERGY      -408.526324737307
-------------------------   --------------------



           ************************************************************
           *        Program running with 8 parallel MPI-processes     *
           *              working on a common directory               *
           ************************************************************

------------------------------------------------------------------------------
                              ORCA PROPERTY CALCULATIONS
------------------------------------------------------------------------------

GBWName                                 ... 2fluorocyclohexanone_4.gbw
Number of atoms                         ...     17
Number of basis functions               ...    157
Max core memory                         ...   1024 MB

Electric properties:
Dipole moment                           ... YES
Quadrupole moment                       ...  NO
Static polarizability (Dipole/Dipole)   ...  NO
Static polarizability (Dipole/Quad.)    ...  NO
Static polarizability (Quad./Quad.)     ...  NO
Static polarizability (Velocity)        ...  NO

Atomic electric properties:
Dipole moment                           ...  NO
Quadrupole moment                       ...  NO
Static polarizability                   ...  NO

Choice of electric origin               ... Center of mass
Position of electric origin             ...     0.134849    -0.080632     0.050491

General magnetic properties:
Magnetizability                         ...  NO

EPR properties:
g-Tensor (aka g-matrix)                 ...  NO
Zero-Field splitting spin-orbit         ...  NO
Zero-field splitting spin-spin          ...  NO
Hyperfine couplings                     ...  NO (   0 nuclei)
Quadrupole couplings                    ...  NO (   0 nuclei)
Contact density                         ...  NO (   0 nuclei)

NMR properties:
Chemical shifts                         ...  NO (   0 nuclei)
Spin-rotation constants                 ...  NO (   0 nuclei)
Spin-spin couplings                     ...  NO (   0 nuclei,    0 pairs)

Choice of magnetic origin               ... GIAO
Position of magnetic origin             ...     0.000000     0.000000     0.000000

Properties with geometric perturbations:
SCF Hessian                             ...  NO
IR spectrum                             ...  NO
VCD spectrum                            ...  NO
X-ray spectroscopy properties:
SCF XES/XAS/RIXS spectra                ...  NO


-------------
DIPOLE MOMENT
-------------

Method             : SCF
Type of density    : Electron Density
Multiplicity       :   1
Irrep              :   0
Energy             :  -408.6637097687346909 Eh
Relativity type    : 
Basis              : AO
                                X                 Y                 Z
Electronic contribution:      7.164480202      -4.723684144       2.621165266
Nuclear contribution   :     -8.358551955       4.999554080      -3.129107138
                        -----------------------------------------
Total Dipole Moment    :     -1.194071754       0.275869937      -0.507941872
                        -----------------------------------------
Magnitude (a.u.)       :      1.326618453
Magnitude (Debye)      :      3.371996131



--------------------
Rotational spectrum 
--------------------
 
Rotational constants in cm-1:             0.090278             0.070954             0.050044 
Rotational constants in MHz :          2706.466301          2127.141758          1500.274925 

Dipole components along the rotational axes: 
x,y,z [a.u.] :    -1.185360     0.339365    -0.489560 
x,y,z [Debye]:    -3.012946     0.862598    -1.244364 

 

Dipole moment calculation done in   0.0 sec 

Maximum memory used throughout the entire PROP-calculation: 7.7 MB

--------------------------------
SUGGESTED CITATIONS FOR THIS RUN
--------------------------------

Below you find a list of papers that are relevant to this ORCA run
We neither can nor want to force you to cite these papers, but we appreciate if you do
You receive ORCA, which is the product of decades of hard work by many enthusiastic individuals, for free
The only thing we kindly ask in return is that you cite our papers,
We deeply appreciate it, if you show your appreciation for ORCA by not just citing the generic ORCA reference.

Please note that relegating all ORCA citations to the supporting information does *not* help us.
SI sections are not indexed - citations you put there will not count into any citation statistics
But we need these citations in order to attract the funding resources that allow us to do what we are doing

Therefore, if you are a happy ORCA user, please consider citing a few of the papers listed below in the main body of your paper

In addition to the list printed below, the program has created the file 2fluorocyclohexanone_4.bibtex that contains the list in bibtex format
You can import this file easily into all common literature databanks and citation aid programs


List of essential papers. We consider these as the minimum necessary citations

  1. Neese,F.
     Software update: the ORCA program system, version 5.0
     WIRES Comput. Molec. Sci., 2022 12(1)e1606
     doi.org/10.1002/wcms.1606

List of papers to cite with high priority. The work reported in these papers was absolutely
necessary for this run to complete.
Our perspective: the developers of density functionals and basis sets usually get cited in chemistry papers
Good! But without the algorithms to do something with them, the functionals or basis sets would not do anything.
Hence, in our opinion, the algorithm design and method developments papers are equally worthy of getting cited

  1. Neese,F.; Olbrich,G.
     Efficient use of the resolution of the identity approximation in time-dependent density functional calculations with hybrid density functionals
     Chem. Phys. Lett., 2002 362 170-178
     doi.org/10.1016/s0009-2614(02)01053-9
  2. Neese,F.
     An improvement of the resolution of the identity approximation for the formation of the Coulomb matrix
     J. Comp. Chem., 2003 24(14)1740-1747
     doi.org/10.1002/jcc.10318
  3. Neese,F.; Wennmohs,F.; Hansen,A.; Becker,U.
     Efficient, approximate and parallel Hartree-Fock and hybrid DFT calculations. A 'chain-of-spheres' algorithm for the Hartree-Fock exchange
     Chem. Phys., 2009 356(1-3)98-109
     doi.org/10.1016/j.chemphys.2008.10.036
  4. Helmich-Paris,B.; de Souza,B.; Neese,F.; Izsák,R.
     An improved chain of spheres for exchange algorithm
     J. Chem. Phys., 2021 155 104109
     doi.org/doi: 10.1063/5.0058766.
  5. Neese,F.
     The SHARK Integral Generation and Digestion System
     J. Comp. Chem., 2022  1-16
     doi.org/10.1002/jcc.26942

List of suggested additional citations. These are papers that are important in the 'surrounding' of 
of this run, or papers that preceded the highly important papers. If you like your results we are grateful for a citation.

  1. Izsak,R.; Neese,F.
     An overlap fitted chain of spheres exchange method
     J. Chem. Phys., 2011 135 144105
     doi.org/10.1063/1.3646921
  2. Izsak,R.; Hansen,A.; Neese,F.
     The resolution of identity and chain of spheres approximations for the LPNO-CCSD singles Fock term
     Molec. Phys., 2012 110 2413-2417
     doi.org/10.1080/00268976.2012.687466
  3. Neese,F.
     The ORCA program system
     WIRES Comput. Molec. Sci., 2012 2(1)73-78
     doi.org/10.1002/wcms.81
  4. Izsak,R.; Neese,F.; Klopper,W.
     Robust fitting techniques in the chain of spheres approximation to the Fock exchange: The role of the complementary space
     J. Chem. Phys., 2013 139 
     doi.org/10.1063/1.4819264
  5. Neese,F.
     Software update: the ORCA program system, version 4.0
     WIRES Comput. Molec. Sci., 2018 8(1)1-6
     doi.org/10.1002/wcms.1327
  6. Neese,F.; Wennmohs,F.; Becker,U.; Riplinger,C.
     The ORCA quantum chemistry program package
     J. Chem. Phys., 2020 152 Art. No. L224108
     doi.org/10.1063/5.0004608

List of optional additional citations

  1. Neese,F.
     Approximate second-order SCF convergence for spin unrestricted wavefunctions
     Chem. Phys. Lett., 2000 325(1-3)93-98
     doi.org/10.1016/s0009-2614(00)00662-x

Timings for individual modules:

Sum of individual times          ...        9.356 sec (=   0.156 min)
Startup calculation              ...        0.518 sec (=   0.009 min)   5.5 %
SCF iterations                   ...        2.543 sec (=   0.042 min)  27.2 %
Property integrals               ...        0.159 sec (=   0.003 min)   1.7 %
Property calculations            ...        0.154 sec (=   0.003 min)   1.6 %
CIS module                       ...        5.983 sec (=   0.100 min)  63.9 %
                             ****ORCA TERMINATED NORMALLY****
TOTAL RUN TIME: 0 days 0 hours 0 minutes 9 seconds 495 msec
