 Entering Gaussian System, Link 0=g09
 Initial command:
 /home/anv/software/gaussian09/g09/l1.exe /scratch/local/2fluorocyclohexanone/2fluorocyclohexanone_4/Gau-10360.inp -scrdir=/scratch/local/2fluorocyclohexanone/2fluorocyclohexanone_4/
 Entering Link 1 = /home/anv/software/gaussian09/g09/l1.exe PID=     10362.
  
 Copyright (c) 1988,1990,1992,1993,1995,1998,2003,2009,2011,
            Gaussian, Inc.  All Rights Reserved.
  
 This is part of the Gaussian(R) 09 program.  It is based on
 the Gaussian(R) 03 system (copyright 2003, Gaussian, Inc.),
 the Gaussian(R) 98 system (copyright 1998, Gaussian, Inc.),
 the Gaussian(R) 94 system (copyright 1995, Gaussian, Inc.),
 the Gaussian 92(TM) system (copyright 1992, Gaussian, Inc.),
 the Gaussian 90(TM) system (copyright 1990, Gaussian, Inc.),
 the Gaussian 88(TM) system (copyright 1988, Gaussian, Inc.),
 the Gaussian 86(TM) system (copyright 1986, Carnegie Mellon
 University), and the Gaussian 82(TM) system (copyright 1983,
 Carnegie Mellon University). Gaussian is a federally registered
 trademark of Gaussian, Inc.
  
 This software contains proprietary and confidential information,
 including trade secrets, belonging to Gaussian, Inc.
  
 This software is provided under written license and may be
 used, copied, transmitted, or stored only in accord with that
 written license.
  
 The following legend is applicable only to US Government
 contracts under FAR:
  
                    RESTRICTED RIGHTS LEGEND
  
 Use, reproduction and disclosure by the US Government is
 subject to restrictions as set forth in subparagraphs (a)
 and (c) of the Commercial Computer Software - Restricted
 Rights clause in FAR 52.227-19.
  
 Gaussian, Inc.
 340 Quinnipiac St., Bldg. 40, Wallingford CT 06492
  
  
 ---------------------------------------------------------------
 Warning -- This program may not be used in any manner that
 competes with the business of Gaussian, Inc. or will provide
 assistance to any competitor of Gaussian, Inc.  The licensee
 of this program is prohibited from giving any competitor of
 Gaussian, Inc. access to this program.  By using this program,
 the user acknowledges that Gaussian, Inc. is engaged in the
 business of creating and licensing software in the field of
 computational chemistry and represents and warrants to the
 licensee that it is not a competitor of Gaussian, Inc. and that
 it will not use this program in any manner prohibited above.
 ---------------------------------------------------------------
  

 Cite this work as:
 Gaussian 09, Revision C.01,
 M. J. Frisch, G. W. Trucks, H. B. Schlegel, G. E. Scuseria, 
 M. A. Robb, J. R. Cheeseman, G. Scalmani, V. Barone, B. Mennucci, 
 G. A. Petersson, H. Nakatsuji, M. Caricato, X. Li, H. P. Hratchian, 
 A. F. Izmaylov, J. Bloino, G. Zheng, J. L. Sonnenberg, M. Hada, 
 M. Ehara, K. Toyota, R. Fukuda, J. Hasegawa, M. Ishida, T. Nakajima, 
 Y. Honda, O. Kitao, H. Nakai, T. Vreven, J. A. Montgomery, Jr., 
 J. E. Peralta, F. Ogliaro, M. Bearpark, J. J. Heyd, E. Brothers, 
 K. N. Kudin, V. N. Staroverov, T. Keith, R. Kobayashi, J. Normand, 
 K. Raghavachari, A. Rendell, J. C. Burant, S. S. Iyengar, J. Tomasi, 
 M. Cossi, N. Rega, J. M. Millam, M. Klene, J. E. Knox, J. B. Cross, 
 V. Bakken, C. Adamo, J. Jaramillo, R. Gomperts, R. E. Stratmann, 
 O. Yazyev, A. J. Austin, R. Cammi, C. Pomelli, J. W. Ochterski, 
 R. L. Martin, K. Morokuma, V. G. Zakrzewski, G. A. Voth, 
 P. Salvador, J. J. Dannenberg, S. Dapprich, A. D. Daniels, 
 O. Farkas, J. B. Foresman, J. V. Ortiz, J. Cioslowski, 
 and D. J. Fox, Gaussian, Inc., Wallingford CT, 2010.
 
 ******************************************
 Gaussian 09:  EM64L-G09RevC.01 23-Sep-2011
                20-Nov-2023 
 ******************************************
 %chk=2fluorocyclohexanone_4
 %mem=8192mb
 %nproc=6
 Will use up to    6 processors via shared memory.
 ---------------------------------------------------
 #N PBE1PBE 6-31G** td=(nstates=25) gfinput pop=full
 ---------------------------------------------------
 1/38=1/1;
 2/12=2,17=6,18=5,40=1/2;
 3/5=1,6=6,7=101,11=2,16=1,24=10,25=1,30=1,74=-13/1,2,8,3;
 4//1;
 5/5=2,38=5/2;
 8/6=1,10=2,108=25/1;
 9/41=25,42=1/14;
 6/7=3/1;
 99/5=1,9=1/99;
 -----------------------------------------------
 2fluorocyclohexanone/2fluorocyclohexanone_4.dat
 -----------------------------------------------
 Charge =  0 Multiplicity = 1
 Symbolic Z-Matrix:
 6                     0.        0.        0. 
 6                     1.522     0.        0. 
 6                     2.1072    1.4137    0. 
 6                     1.1899    2.4556    0.6444 
 6                     0.3351    1.8667    1.7574 
 6                    -0.5148    0.7196    1.23 
 8                    -1.5704    0.3772    1.7759 
 9                     1.1557    1.4524    2.7705 
 1                    -0.3693   -1.0307    0.0153 
 1                    -0.3951    0.5005   -0.89 
 1                     1.9026   -0.5569   -0.8636 
 1                     1.8792   -0.5277    0.894 
 1                     3.0722    1.3947    0.5211 
 1                     2.323     1.7254   -1.0291 
 1                     1.8012    3.2781    1.0323 
 1                     0.5351    2.8772   -0.1288 
 1                    -0.3301    2.6367    2.1611 
 
                          Input orientation:                          
 ---------------------------------------------------------------------
 Center     Atomic      Atomic             Coordinates (Angstroms)
 Number     Number       Type             X           Y           Z
 ---------------------------------------------------------------------
      1          6           0        0.000000    0.000000    0.000000
      2          6           0        1.522000    0.000000    0.000000
      3          6           0        2.107200    1.413700    0.000000
      4          6           0        1.189900    2.455600    0.644400
      5          6           0        0.335100    1.866700    1.757400
      6          6           0       -0.514800    0.719600    1.230000
      7          8           0       -1.570400    0.377200    1.775900
      8          9           0        1.155700    1.452400    2.770500
      9          1           0       -0.369300   -1.030700    0.015300
     10          1           0       -0.395100    0.500500   -0.890000
     11          1           0        1.902600   -0.556900   -0.863600
     12          1           0        1.879200   -0.527700    0.894000
     13          1           0        3.072200    1.394700    0.521100
     14          1           0        2.323000    1.725400   -1.029100
     15          1           0        1.801200    3.278100    1.032300
     16          1           0        0.535100    2.877200   -0.128800
     17          1           0       -0.330100    2.636700    2.161100
 ---------------------------------------------------------------------
                    Distance matrix (angstroms):
                    1          2          3          4          5
     1  C    0.000000
     2  C    1.522000   0.000000
     3  C    2.537487   1.530035   0.000000
     4  C    2.803763   2.560374   1.530440   0.000000
     5  C    2.585598   2.825200   2.536533   1.521925   0.000000
     6  C    1.515171   2.485815   2.978180   2.502524   1.521946
     7  O    2.400470   3.585950   4.213418   3.635835   2.418653
     8  F    3.334783   3.149494   2.929594   2.351145   1.367991
     9  H    1.094970   2.153971   3.479709   3.870550   3.453407
    10  H    1.094854   2.172066   2.808476   2.947715   3.067315
    11  H    2.162367   1.095810   2.161234   3.443423   3.898786
    12  H    2.146881   1.097859   2.149478   3.072054   2.977055
    13  H    3.413963   2.149384   1.096873   2.164201   3.040220
    14  H    3.071218   2.162788   1.096710   2.148886   3.425828
    15  H    3.880194   3.448121   2.152967   1.095746   2.160386
    16  H    2.929369   3.044477   2.151725   1.097428   2.149153
    17  H    3.425129   3.879796   3.479442   2.154896   1.094698
                    6          7          8          9         10
     6  C    0.000000
     7  O    1.236744   0.000000
     8  F    2.387615   3.094658   0.000000
     9  H    2.135466   2.554317   4.010304   0.000000
    10  H    2.134651   2.916086   4.087830   1.778990   0.000000
    11  H    3.443318   4.461080   4.219221   2.481629   2.529470
    12  H    2.720274   3.673735   2.822322   2.465943   3.067946
    13  H    3.718181   4.915645   2.955690   4.240557   3.848762
    14  H    3.764077   4.984399   3.984229   3.991909   2.984593
    15  H    3.456713   4.509529   2.602151   4.930630   4.029148
    16  H    2.757511   3.782990   3.289550   4.013775   2.663344
    17  H    2.139237   2.606159   1.995379   4.249214   3.725156
                   11         12         13         14         15
    11  H    0.000000
    12  H    1.757998   0.000000
    13  H    2.663475   2.293017   0.000000
    14  H    2.326590   2.995285   1.753221   0.000000
    15  H    4.279246   3.809111   2.328940   2.632968   0.000000
    16  H    3.768691   3.800798   3.009494   2.309496   1.764053
    17  H    4.932833   4.062016   3.975904   4.248151   2.495601
                   16         17
    16  H    0.000000
    17  H    2.459686   0.000000
 Stoichiometry    C6H9FO
 Framework group  C1[X(C6H9FO)]
 Deg. of freedom    45
 Full point group                 C1      NOp   1
 Largest Abelian subgroup         C1      NOp   1
 Largest concise Abelian subgroup C1      NOp   1
                         Standard orientation:                         
 ---------------------------------------------------------------------
 Center     Atomic      Atomic             Coordinates (Angstroms)
 Number     Number       Type             X           Y           Z
 ---------------------------------------------------------------------
      1          6           0        0.238878    1.546920   -0.113858
      2          6           0       -1.059831    1.228192    0.612951
      3          6           0       -1.859648    0.120868   -0.076349
      4          6           0       -0.991539   -0.855020   -0.874018
      5          6           0        0.392977   -1.029556   -0.266639
      6          6           0        1.110873    0.309402   -0.176445
      7          8           0        2.344313    0.394364   -0.145714
      8          9           0        0.263211   -1.608015    0.966222
      9          1           0        0.780350    2.331737    0.424500
     10          1           0        0.045861    1.891753   -1.134906
     11          1           0       -1.677434    2.129045    0.701439
     12          1           0       -0.826789    0.907498    1.636739
     13          1           0       -2.430913   -0.425572    0.684040
     14          1           0       -2.600045    0.564741   -0.752783
     15          1           0       -1.503272   -1.822170   -0.932426
     16          1           0       -0.890572   -0.480992   -1.900788
     17          1           0        0.989151   -1.703659   -0.889957
 ---------------------------------------------------------------------
 Rotational constants (GHZ):      2.7076779      2.1282060      1.5010206
 Standard basis: 6-31G(d,p) (6D, 7F)
 AO basis set in the form of general basis input (Overlap normalization):
      1 0
 S   6 1.00       0.000000000000
      0.3047524880D+04  0.1834737132D-02
      0.4573695180D+03  0.1403732281D-01
      0.1039486850D+03  0.6884262226D-01
      0.2921015530D+02  0.2321844432D+00
      0.9286662960D+01  0.4679413484D+00
      0.3163926960D+01  0.3623119853D+00
 SP   3 1.00       0.000000000000
      0.7868272350D+01 -0.1193324198D+00  0.6899906659D-01
      0.1881288540D+01 -0.1608541517D+00  0.3164239610D+00
      0.5442492580D+00  0.1143456438D+01  0.7443082909D+00
 SP   1 1.00       0.000000000000
      0.1687144782D+00  0.1000000000D+01  0.1000000000D+01
 D   1 1.00       0.000000000000
      0.8000000000D+00  0.1000000000D+01
 ****
      2 0
 S   6 1.00       0.000000000000
      0.3047524880D+04  0.1834737132D-02
      0.4573695180D+03  0.1403732281D-01
      0.1039486850D+03  0.6884262226D-01
      0.2921015530D+02  0.2321844432D+00
      0.9286662960D+01  0.4679413484D+00
      0.3163926960D+01  0.3623119853D+00
 SP   3 1.00       0.000000000000
      0.7868272350D+01 -0.1193324198D+00  0.6899906659D-01
      0.1881288540D+01 -0.1608541517D+00  0.3164239610D+00
      0.5442492580D+00  0.1143456438D+01  0.7443082909D+00
 SP   1 1.00       0.000000000000
      0.1687144782D+00  0.1000000000D+01  0.1000000000D+01
 D   1 1.00       0.000000000000
      0.8000000000D+00  0.1000000000D+01
 ****
      3 0
 S   6 1.00       0.000000000000
      0.3047524880D+04  0.1834737132D-02
      0.4573695180D+03  0.1403732281D-01
      0.1039486850D+03  0.6884262226D-01
      0.2921015530D+02  0.2321844432D+00
      0.9286662960D+01  0.4679413484D+00
      0.3163926960D+01  0.3623119853D+00
 SP   3 1.00       0.000000000000
      0.7868272350D+01 -0.1193324198D+00  0.6899906659D-01
      0.1881288540D+01 -0.1608541517D+00  0.3164239610D+00
      0.5442492580D+00  0.1143456438D+01  0.7443082909D+00
 SP   1 1.00       0.000000000000
      0.1687144782D+00  0.1000000000D+01  0.1000000000D+01
 D   1 1.00       0.000000000000
      0.8000000000D+00  0.1000000000D+01
 ****
      4 0
 S   6 1.00       0.000000000000
      0.3047524880D+04  0.1834737132D-02
      0.4573695180D+03  0.1403732281D-01
      0.1039486850D+03  0.6884262226D-01
      0.2921015530D+02  0.2321844432D+00
      0.9286662960D+01  0.4679413484D+00
      0.3163926960D+01  0.3623119853D+00
 SP   3 1.00       0.000000000000
      0.7868272350D+01 -0.1193324198D+00  0.6899906659D-01
      0.1881288540D+01 -0.1608541517D+00  0.3164239610D+00
      0.5442492580D+00  0.1143456438D+01  0.7443082909D+00
 SP   1 1.00       0.000000000000
      0.1687144782D+00  0.1000000000D+01  0.1000000000D+01
 D   1 1.00       0.000000000000
      0.8000000000D+00  0.1000000000D+01
 ****
      5 0
 S   6 1.00       0.000000000000
      0.3047524880D+04  0.1834737132D-02
      0.4573695180D+03  0.1403732281D-01
      0.1039486850D+03  0.6884262226D-01
      0.2921015530D+02  0.2321844432D+00
      0.9286662960D+01  0.4679413484D+00
      0.3163926960D+01  0.3623119853D+00
 SP   3 1.00       0.000000000000
      0.7868272350D+01 -0.1193324198D+00  0.6899906659D-01
      0.1881288540D+01 -0.1608541517D+00  0.3164239610D+00
      0.5442492580D+00  0.1143456438D+01  0.7443082909D+00
 SP   1 1.00       0.000000000000
      0.1687144782D+00  0.1000000000D+01  0.1000000000D+01
 D   1 1.00       0.000000000000
      0.8000000000D+00  0.1000000000D+01
 ****
      6 0
 S   6 1.00       0.000000000000
      0.3047524880D+04  0.1834737132D-02
      0.4573695180D+03  0.1403732281D-01
      0.1039486850D+03  0.6884262226D-01
      0.2921015530D+02  0.2321844432D+00
      0.9286662960D+01  0.4679413484D+00
      0.3163926960D+01  0.3623119853D+00
 SP   3 1.00       0.000000000000
      0.7868272350D+01 -0.1193324198D+00  0.6899906659D-01
      0.1881288540D+01 -0.1608541517D+00  0.3164239610D+00
      0.5442492580D+00  0.1143456438D+01  0.7443082909D+00
 SP   1 1.00       0.000000000000
      0.1687144782D+00  0.1000000000D+01  0.1000000000D+01
 D   1 1.00       0.000000000000
      0.8000000000D+00  0.1000000000D+01
 ****
      7 0
 S   6 1.00       0.000000000000
      0.5484671660D+04  0.1831074430D-02
      0.8252349460D+03  0.1395017220D-01
      0.1880469580D+03  0.6844507810D-01
      0.5296450000D+02  0.2327143360D+00
      0.1689757040D+02  0.4701928980D+00
      0.5799635340D+01  0.3585208530D+00
 SP   3 1.00       0.000000000000
      0.1553961625D+02 -0.1107775495D+00  0.7087426823D-01
      0.3599933586D+01 -0.1480262627D+00  0.3397528391D+00
      0.1013761750D+01  0.1130767015D+01  0.7271585773D+00
 SP   1 1.00       0.000000000000
      0.2700058226D+00  0.1000000000D+01  0.1000000000D+01
 D   1 1.00       0.000000000000
      0.8000000000D+00  0.1000000000D+01
 ****
      8 0
 S   6 1.00       0.000000000000
      0.7001713090D+04  0.1819616901D-02
      0.1051366090D+04  0.1391607961D-01
      0.2392856900D+03  0.6840532453D-01
      0.6739744530D+02  0.2331857601D+00
      0.2151995730D+02  0.4712674392D+00
      0.7403101300D+01  0.3566185462D+00
 SP   3 1.00       0.000000000000
      0.2084795280D+02 -0.1085069751D+00  0.7162872424D-01
      0.4808308340D+01 -0.1464516581D+00  0.3459121027D+00
      0.1344069860D+01  0.1128688581D+01  0.7224699564D+00
 SP   1 1.00       0.000000000000
      0.3581513930D+00  0.1000000000D+01  0.1000000000D+01
 D   1 1.00       0.000000000000
      0.8000000000D+00  0.1000000000D+01
 ****
      9 0
 S   3 1.00       0.000000000000
      0.1873113696D+02  0.3349460434D-01
      0.2825394365D+01  0.2347269535D+00
      0.6401216923D+00  0.8137573261D+00
 S   1 1.00       0.000000000000
      0.1612777588D+00  0.1000000000D+01
 P   1 1.00       0.000000000000
      0.1100000000D+01  0.1000000000D+01
 ****
     10 0
 S   3 1.00       0.000000000000
      0.1873113696D+02  0.3349460434D-01
      0.2825394365D+01  0.2347269535D+00
      0.6401216923D+00  0.8137573261D+00
 S   1 1.00       0.000000000000
      0.1612777588D+00  0.1000000000D+01
 P   1 1.00       0.000000000000
      0.1100000000D+01  0.1000000000D+01
 ****
     11 0
 S   3 1.00       0.000000000000
      0.1873113696D+02  0.3349460434D-01
      0.2825394365D+01  0.2347269535D+00
      0.6401216923D+00  0.8137573261D+00
 S   1 1.00       0.000000000000
      0.1612777588D+00  0.1000000000D+01
 P   1 1.00       0.000000000000
      0.1100000000D+01  0.1000000000D+01
 ****
     12 0
 S   3 1.00       0.000000000000
      0.1873113696D+02  0.3349460434D-01
      0.2825394365D+01  0.2347269535D+00
      0.6401216923D+00  0.8137573261D+00
 S   1 1.00       0.000000000000
      0.1612777588D+00  0.1000000000D+01
 P   1 1.00       0.000000000000
      0.1100000000D+01  0.1000000000D+01
 ****
     13 0
 S   3 1.00       0.000000000000
      0.1873113696D+02  0.3349460434D-01
      0.2825394365D+01  0.2347269535D+00
      0.6401216923D+00  0.8137573261D+00
 S   1 1.00       0.000000000000
      0.1612777588D+00  0.1000000000D+01
 P   1 1.00       0.000000000000
      0.1100000000D+01  0.1000000000D+01
 ****
     14 0
 S   3 1.00       0.000000000000
      0.1873113696D+02  0.3349460434D-01
      0.2825394365D+01  0.2347269535D+00
      0.6401216923D+00  0.8137573261D+00
 S   1 1.00       0.000000000000
      0.1612777588D+00  0.1000000000D+01
 P   1 1.00       0.000000000000
      0.1100000000D+01  0.1000000000D+01
 ****
     15 0
 S   3 1.00       0.000000000000
      0.1873113696D+02  0.3349460434D-01
      0.2825394365D+01  0.2347269535D+00
      0.6401216923D+00  0.8137573261D+00
 S   1 1.00       0.000000000000
      0.1612777588D+00  0.1000000000D+01
 P   1 1.00       0.000000000000
      0.1100000000D+01  0.1000000000D+01
 ****
     16 0
 S   3 1.00       0.000000000000
      0.1873113696D+02  0.3349460434D-01
      0.2825394365D+01  0.2347269535D+00
      0.6401216923D+00  0.8137573261D+00
 S   1 1.00       0.000000000000
      0.1612777588D+00  0.1000000000D+01
 P   1 1.00       0.000000000000
      0.1100000000D+01  0.1000000000D+01
 ****
     17 0
 S   3 1.00       0.000000000000
      0.1873113696D+02  0.3349460434D-01
      0.2825394365D+01  0.2347269535D+00
      0.6401216923D+00  0.8137573261D+00
 S   1 1.00       0.000000000000
      0.1612777588D+00  0.1000000000D+01
 P   1 1.00       0.000000000000
      0.1100000000D+01  0.1000000000D+01
 ****

 There are   165 symmetry adapted basis functions of A   symmetry.
 Integral buffers will be    131072 words long.
 Raffenetti 2 integral format.
 Two-electron integral symmetry is turned on.
   165 basis functions,   287 primitive gaussians,   165 cartesian basis functions
    31 alpha electrons       31 beta electrons
       nuclear repulsion energy       395.9558182478 Hartrees.
 NAtoms=   17 NActive=   17 NUniq=   17 SFac= 1.00D+00 NAtFMM=   60 NAOKFM=F Big=F
 One-electron integrals computed using PRISM.
 NBasis=   165 RedAO= T  NBF=   165
 NBsUse=   165 1.00D-06 NBFU=   165
 Harris functional with IExCor= 1009 diagonalized for initial guess.
 ExpMin= 1.61D-01 ExpMax= 7.00D+03 ExpMxC= 1.05D+03 IAcc=1 IRadAn=         1 AccDes= 0.00D+00
 HarFok:  IExCor= 1009 AccDes= 0.00D+00 IRadAn=         1 IDoV= 1
 ScaDFX=  1.000000  1.000000  1.000000  1.000000
 FoFCou: FMM=F IPFlag=           0 FMFlag=      100000 FMFlg1=           0
         NFxFlg=           0 DoJE=T BraDBF=F KetDBF=T FulRan=T
         Omega=  0.000000  0.000000  1.000000  0.000000  0.000000 ICntrl=     500 IOpCl=  0
         NMat0=    1 NMatS0=    1 NMatT0=    0 NMatD0=    1 NMtDS0=    0 NMtDT0=    0
         I1Cent=           4 NGrid=           0.
 Petite list used in FoFCou.
 Initial guess orbital symmetries:
       Occupied  (A) (A) (A) (A) (A) (A) (A) (A) (A) (A) (A) (A)
                 (A) (A) (A) (A) (A) (A) (A) (A) (A) (A) (A) (A)
                 (A) (A) (A) (A) (A) (A) (A)
       Virtual   (A) (A) (A) (A) (A) (A) (A) (A) (A) (A) (A) (A)
                 (A) (A) (A) (A) (A) (A) (A) (A) (A) (A) (A) (A)
                 (A) (A) (A) (A) (A) (A) (A) (A) (A) (A) (A) (A)
                 (A) (A) (A) (A) (A) (A) (A) (A) (A) (A) (A) (A)
                 (A) (A) (A) (A) (A) (A) (A) (A) (A) (A) (A) (A)
                 (A) (A) (A) (A) (A) (A) (A) (A) (A) (A) (A) (A)
                 (A) (A) (A) (A) (A) (A) (A) (A) (A) (A) (A) (A)
                 (A) (A) (A) (A) (A) (A) (A) (A) (A) (A) (A) (A)
                 (A) (A) (A) (A) (A) (A) (A) (A) (A) (A) (A) (A)
                 (A) (A) (A) (A) (A) (A) (A) (A) (A) (A) (A) (A)
                 (A) (A) (A) (A) (A) (A) (A) (A) (A) (A) (A) (A)
                 (A) (A)
 The electronic state of the initial guess is 1-A.
 Requested convergence on RMS density matrix=1.00D-08 within 128 cycles.
 Requested convergence on MAX density matrix=1.00D-06.
 Requested convergence on             energy=1.00D-06.
 No special actions if energy rises.
 Keep R1 ints in memory in canonical form, NReq=96313597.
 Integral accuracy reduced to 1.0D-05 until final iterations.
 Initial convergence to 1.0D-05 achieved.  Increase integral accuracy.
 SCF Done:  E(RPBE1PBE) =  -408.667651124     A.U. after   14 cycles
             Convg  =    0.3864D-08             -V/T =  2.0079
 ExpMin= 1.61D-01 ExpMax= 7.00D+03 ExpMxC= 1.05D+03 IAcc=3 IRadAn=         5 AccDes= 0.00D+00
 HarFok:  IExCor=  205 AccDes= 0.00D+00 IRadAn=         5 IDoV=-2
 ScaDFX=  1.000000  1.000000  1.000000  1.000000
 Range of M.O.s used for correlation:     9   165
 NBasis=   165 NAE=    31 NBE=    31 NFC=     8 NFV=     0
 NROrb=    157 NOA=    23 NOB=    23 NVA=   134 NVB=   134
 Orbital symmetries:
       Occupied  (A) (A) (A) (A) (A) (A) (A) (A) (A) (A) (A) (A)
                 (A) (A) (A) (A) (A) (A) (A) (A) (A) (A) (A) (A)
                 (A) (A) (A) (A) (A) (A) (A)
       Virtual   (A) (A) (A) (A) (A) (A) (A) (A) (A) (A) (A) (A)
                 (A) (A) (A) (A) (A) (A) (A) (A) (A) (A) (A) (A)
                 (A) (A) (A) (A) (A) (A) (A) (A) (A) (A) (A) (A)
                 (A) (A) (A) (A) (A) (A) (A) (A) (A) (A) (A) (A)
                 (A) (A) (A) (A) (A) (A) (A) (A) (A) (A) (A) (A)
                 (A) (A) (A) (A) (A) (A) (A) (A) (A) (A) (A) (A)
                 (A) (A) (A) (A) (A) (A) (A) (A) (A) (A) (A) (A)
                 (A) (A) (A) (A) (A) (A) (A) (A) (A) (A) (A) (A)
                 (A) (A) (A) (A) (A) (A) (A) (A) (A) (A) (A) (A)
                 (A) (A) (A) (A) (A) (A) (A) (A) (A) (A) (A) (A)
                 (A) (A) (A) (A) (A) (A) (A) (A) (A) (A) (A) (A)
                 (A) (A)
   100 initial guesses have been made.
 Convergence on wavefunction:    0.001000000000000
 Iteration     1 Dimension   100 NMult   100
 CISAX will form   100 AO SS matrices at one time.
 New state      5 was old state      7
 New state      6 was old state      8
 New state      7 was old state      6
 New state      8 was old state     10
 New state     10 was old state     11
 New state     11 was old state     13
 New state     13 was old state     14
 New state     14 was old state     16
 New state     16 was old state     21
 New state     17 was old state     18
 New state     18 was old state     17
 New state     21 was old state     24
 New state     24 was old state     25
 No map to state     25
 Iteration     2 Dimension   150 NMult   150
 New state      9 was old state     10
 New state     10 was old state      9
 New state     20 was old state     21
 New state     21 was old state     20
 Iteration     3 Dimension   200 NMult   200
 Iteration     4 Dimension   244 NMult   244
 Iteration     5 Dimension   252 NMult   252
 Iteration     6 Dimension   254 NMult   254
 ***********************************************************************
 Excited states from <AA,BB:AA,BB> singles matrix:
 ***********************************************************************
 
 Ground to excited state transition densities written to RWF  633
 Ground to excited state transition electric dipole moments (Au):
       state          X           Y           Z        Dip. S.      Osc.
         1        -0.0603     -0.0222     -0.0006      0.0041      0.0004
         2        -0.0245     -0.0908      0.0003      0.0089      0.0014
         3        -0.0999      0.0327     -0.0311      0.0120      0.0020
         4        -0.1521      0.0750      0.0050      0.0288      0.0051
         5         0.3803     -0.0565     -0.0039      0.1478      0.0285
         6        -0.1202      0.0284     -0.0862      0.0227      0.0044
         7        -0.0203      0.0846     -0.0343      0.0087      0.0018
         8         0.3300      0.0686      0.0007      0.1136      0.0240
         9         0.6014     -0.1449      0.0424      0.3845      0.0826
        10         0.0244      0.0434     -0.0295      0.0034      0.0007
        11         0.1036      0.0494     -0.1453      0.0343      0.0077
        12         0.0001     -0.1543      0.0343      0.0250      0.0058
        13         0.3723      0.2602     -0.0153      0.2066      0.0485
        14        -0.2093      0.1583      0.0309      0.0698      0.0167
        15        -0.2355      0.0545      0.0389      0.0600      0.0145
        16        -0.2561     -0.0601      0.0487      0.0716      0.0174
        17        -0.1949      0.1074      0.0082      0.0496      0.0121
        18        -0.0450      0.1141      0.0086      0.0151      0.0037
        19         0.2513      0.0833     -0.0140      0.0703      0.0176
        20        -0.0761     -0.5626     -0.2304      0.3754      0.0940
        21        -0.0291     -0.1365     -0.0161      0.0197      0.0050
        22        -0.1689     -0.0270     -0.0210      0.0297      0.0077
        23        -0.2240      0.1087     -0.0804      0.0684      0.0179
        24        -0.1998      0.0690      0.0202      0.0451      0.0121
        25        -0.0918      0.0296      0.1668      0.0371      0.0100
 Ground to excited state transition velocity dipole moments (Au):
       state          X           Y           Z        Dip. S.      Osc.
         1         0.0019      0.0005     -0.0019      0.0000      0.0000
         2         0.0103      0.0203     -0.0012      0.0005      0.0015
         3         0.0213     -0.0086      0.0033      0.0005      0.0014
         4         0.0425     -0.0159     -0.0048      0.0021      0.0053
         5        -0.0997      0.0138     -0.0081      0.0102      0.0235
         6         0.0404     -0.0063      0.0250      0.0023      0.0052
         7         0.0035     -0.0224      0.0181      0.0008      0.0019
         8        -0.0973     -0.0259      0.0101      0.0102      0.0216
         9        -0.1823      0.0440     -0.0152      0.0354      0.0732
        10        -0.0010     -0.0145      0.0092      0.0003      0.0006
        11        -0.0335     -0.0158      0.0472      0.0036      0.0071
        12        -0.0012      0.0738     -0.0211      0.0059      0.0112
        13        -0.1301     -0.0911      0.0092      0.0253      0.0479
        14         0.0712     -0.0523     -0.0132      0.0080      0.0148
        15         0.0964     -0.0217     -0.0118      0.0099      0.0182
        16         0.0934      0.0196     -0.0166      0.0094      0.0171
        17         0.0744     -0.0435     -0.0066      0.0075      0.0136
        18         0.0165     -0.0444     -0.0085      0.0023      0.0042
        19        -0.1045     -0.0284      0.0052      0.0118      0.0209
        20         0.0159      0.1986      0.0858      0.0471      0.0835
        21         0.0114      0.0509      0.0124      0.0029      0.0051
        22         0.0682     -0.0079      0.0155      0.0050      0.0085
        23         0.0919     -0.0431      0.0438      0.0122      0.0207
        24         0.0703     -0.0344     -0.0041      0.0061      0.0102
        25         0.0358     -0.0098     -0.0655      0.0057      0.0093
 Ground to excited state transition magnetic dipole moments (Au):
       state          X           Y           Z
         1        -1.0367     -0.1066     -0.0244
         2         0.1190     -0.0835     -0.0108
         3         0.1011      0.2137      0.1015
         4        -0.0610     -0.0027     -0.2228
         5         0.0937      0.4151      0.1728
         6        -0.2444      0.0971      0.0622
         7        -0.1575      0.0340     -0.4545
         8        -0.1229     -0.8637      0.0925
         9         0.0270      0.4942      0.2504
        10        -0.0885      0.1351     -0.0332
        11        -0.0060     -0.7234     -0.0812
        12        -0.2482     -0.0346      0.4238
        13        -0.2416      0.0747     -0.4496
        14         0.2370      0.1989     -0.3027
        15         0.1428     -0.0441      0.3542
        16        -0.2218      0.1831      0.0612
        17         0.6005     -0.1588     -0.1184
        18        -0.0442      0.7143      0.0262
        19         0.1068      0.3454      0.2624
        20         0.4299     -0.6297      1.0783
        21        -0.3504      0.1780     -0.1053
        22        -0.1790     -0.0760     -0.2812
        23         0.3999      0.2257      0.1545
        24         0.1839     -0.1167      0.3598
        25         0.0614     -0.5099      0.4812
 Ground to excited state transition velocity quadrupole moments (Au):
       state          XX          YY          ZZ          XY          XZ          YZ
         1        -0.0476      0.0028      0.0021      0.0097      0.0054     -0.0937
         2         0.0632     -0.0659      0.0102      0.1131      0.1044     -0.1232
         3         0.0712     -0.2114     -0.0066     -0.0388     -0.0632     -0.1202
         4         0.3187     -0.2318     -0.0760      0.1170      0.0199      0.1002
         5        -0.3046      0.3625      0.0701     -0.0603     -0.0516     -0.0431
         6         0.3500     -0.1032     -0.1272     -0.1724     -0.0987      0.0833
         7         0.0199     -0.0956     -0.0538     -0.3829     -0.1612      0.1069
         8        -0.4702      0.1578      0.1103     -0.0365      0.2266     -0.0029
         9        -0.9576      0.4036      0.2012     -0.1834     -0.0566     -0.0492
        10         0.0713      0.1244     -0.0156      0.1553      0.0043      0.1508
        11        -0.5977      0.3499     -0.0637     -0.1758      0.1028     -0.0387
        12        -0.1475      0.2641      0.0822     -0.1855     -0.0875     -0.1172
        13        -0.4202      0.0186      0.0380     -0.1335      0.0149      0.0856
        14         0.2772     -0.3189      0.0213     -0.2183     -0.0006     -0.0084
        15        -0.2114      0.2717      0.0214     -0.1092     -0.5348      0.3355
        16        -0.1372     -0.2658      0.0727      0.1332     -0.1245     -0.2217
        17        -0.1114     -0.1214     -0.0700      0.1908      0.0258      0.1419
        18        -0.3470     -0.0540      0.0583     -0.0557     -0.2089     -0.1260
        19         0.2588     -0.4703      0.2056     -0.2015     -0.2927     -0.1788
        20         0.2887     -0.1649     -0.0368     -0.0193     -0.0713     -0.0443
        21         0.0979     -0.0962      0.1182     -0.6544     -0.1837     -0.1743
        22         0.3328      0.1782     -0.1584      0.1473     -0.0058      0.1251
        23        -0.6110     -0.1478      0.5145      0.0708     -0.3248      0.4160
        24         0.0771     -0.2447     -0.1215      0.1931      0.0384     -0.0764
        25        -0.2893      0.5263     -0.0567      0.2275      0.3891      0.2602
 <0|del|b> * <b|rxdel|0> + <0|del|b> * <b|delr+rdel|0>
 Rotatory Strengths (R) in cgs (10**-40 erg-esu-cm/Gauss)
       state          XX          YY          ZZ    R(velocity)
         1        -0.0835     -5.3166     -4.7169     -3.3723
         2        -5.8356      0.1469      4.3408     -0.4493
         3        -3.0537      0.0886      4.8023      0.6124
         4         1.1624      4.4195     -9.5622     -1.3268
         5         6.7812     -8.4940    -10.5396     -4.0841
         6        -4.8165     -0.7815    -15.9808     -7.1929
         7       -22.8912     -1.7245      2.2662     -7.4499
         8        32.2409     15.1347     31.5069     26.2942
         9        25.4768     -2.7753      5.8928      9.5314
        10        -0.8290     -1.9115     -1.8882     -1.5429
        11         0.9602      6.2335      9.0909      5.4282
        12        -1.1340    -12.5173     -8.9212     -7.5241
        13       -10.8512     17.4779     34.5597     13.7288
        14        -3.5126     17.0884      6.9838      6.8532
        15       -13.1858     39.6350     -5.8860      6.8544
        16         2.7070    -38.9375      1.1061    -11.7081
        17         7.2868     55.2989     38.5190     33.7016
        18       -38.7639     -3.3305    -20.0725    -20.7223
        19       -16.7762      9.3529    -29.5538    -12.3257
        20       -18.8663     94.4399   -123.9520    -16.1261
        21         8.4211      0.7451     -2.1504      2.3386
        22        -1.3916     -9.4327    -18.3702     -9.7315
        23       -12.4776     70.7099      2.5136     20.2486
        24         2.6960      6.0557     18.5016      9.0844
        25       -32.8089     -4.4591     -5.1699    -14.1459
 1/2[<0|r|b>*<b|rxdel|0> + (<0|rxdel|b>*<b|r|0>)*]
 Rotatory Strengths (R) in cgs (10**-40 erg-esu-cm/Gauss)
       state          XX          YY          ZZ     R(length)
         1       -44.1887     -1.6738     -0.0109    -15.2911
         2         2.0642     -5.3656      0.0026     -1.0996
         3         7.1482     -4.9411      2.2297      1.4789
         4        -6.5644      0.1446      0.7806     -1.8798
         5       -25.2016     16.5949      0.4736     -2.7110
         6       -20.7687     -1.9476      3.7926     -6.3079
         7        -2.2551     -2.0318    -11.0160     -5.1010
         8        28.6704     41.9225     -0.0465     23.5155
         9       -11.4883     50.6357     -7.5156     10.5439
        10         1.5287     -4.1457     -0.6919     -1.1030
        11         0.4390     25.2948     -8.3409      5.7976
        12         0.0189     -3.7707    -10.2663     -4.6727
        13        63.6124    -13.7346     -4.8772     15.0002
        14        35.0867    -22.2640      6.6234      6.4820
        15        23.7780      1.6964     -9.7518      5.2409
        16       -40.1640      7.7766     -2.1087    -11.4987
        17        82.7709     12.0649      0.6884     31.8414
        18        -1.4080    -57.6102     -0.1586    -19.7256
        19       -18.9803    -20.3371      2.5897    -12.2426
        20        23.1361   -250.5145    175.7033    -17.2250
        21        -7.2114     17.1741     -1.2014      2.9204
        22       -21.3847     -1.4506     -4.1709     -9.0021
        23        63.3378    -17.3557      8.7854     18.2558
        24        25.9808      5.6993     -5.1403      8.8466
        25         3.9860     10.6813    -56.7491    -14.0273
  1/2[<0|del|b>*<b|r|0> + (<0|r|b>*<b|del|0>)*] (Au)
       state          X           Y           Z        Dip. S.   Osc.(frdel)
         1        -0.0001     -0.0000      0.0000      0.0001      0.0001
         2        -0.0003     -0.0018     -0.0000      0.0021      0.0014
         3        -0.0021     -0.0003     -0.0001      0.0025      0.0017
         4        -0.0065     -0.0012     -0.0000      0.0077      0.0051
         5        -0.0379     -0.0008      0.0000      0.0387      0.0258
         6        -0.0049     -0.0002     -0.0022      0.0072      0.0048
         7        -0.0001     -0.0019     -0.0006      0.0026      0.0017
         8        -0.0321     -0.0018      0.0000      0.0339      0.0226
         9        -0.1096     -0.0064     -0.0006      0.1166      0.0778
        10        -0.0000     -0.0006     -0.0003      0.0009      0.0006
        11        -0.0035     -0.0008     -0.0069      0.0111      0.0074
        12        -0.0000     -0.0114     -0.0007      0.0121      0.0081
        13        -0.0484     -0.0237     -0.0001      0.0723      0.0482
        14        -0.0149     -0.0083     -0.0004      0.0236      0.0157
        15        -0.0227     -0.0012     -0.0005      0.0243      0.0162
        16        -0.0239     -0.0012     -0.0008      0.0259      0.0173
        17        -0.0145     -0.0047     -0.0001      0.0192      0.0128
        18        -0.0007     -0.0051     -0.0001      0.0059      0.0039
        19        -0.0263     -0.0024     -0.0001      0.0287      0.0191
        20        -0.0012     -0.1117     -0.0198      0.1327      0.0885
        21        -0.0003     -0.0069     -0.0002      0.0075      0.0050
        22        -0.0115      0.0002     -0.0003      0.0116      0.0078
        23        -0.0206     -0.0047     -0.0035      0.0288      0.0192
        24        -0.0140     -0.0024     -0.0001      0.0165      0.0110
        25        -0.0033     -0.0003     -0.0109      0.0145      0.0097

 Excitation energies and oscillator strengths:
 
 Excited State   1:      Singlet-A      3.7408 eV  331.44 nm  f=0.0004  <S**2>=0.000
      31 -> 32         0.70143
 This state for optimization and/or second-order correction.
 Total Energy, E(TD-HF/TD-KS) =  -408.530178233    
 Copying the excited state density for this state as the 1-particle RhoCI density.
 
 Excited State   2:      Singlet-A      6.4849 eV  191.19 nm  f=0.0014  <S**2>=0.000
      28 -> 32         0.12720
      30 -> 32         0.68235
 
 Excited State   3:      Singlet-A      6.8388 eV  181.30 nm  f=0.0020  <S**2>=0.000
      27 -> 32         0.19720
      28 -> 32         0.10031
      29 -> 32         0.65568
 
 Excited State   4:      Singlet-A      7.1765 eV  172.77 nm  f=0.0051  <S**2>=0.000
      27 -> 32         0.16413
      28 -> 32         0.65094
      29 -> 32        -0.13704
      30 -> 32        -0.15364
 
 Excited State   5:      Singlet-A      7.8581 eV  157.78 nm  f=0.0285  <S**2>=0.000
      25 -> 32        -0.29444
      26 -> 32         0.37144
      27 -> 32         0.45835
      28 -> 32        -0.13137
      29 -> 32        -0.17676
 
 Excited State   6:      Singlet-A      7.9614 eV  155.73 nm  f=0.0044  <S**2>=0.000
      25 -> 32         0.34303
      26 -> 32         0.55595
      27 -> 32        -0.18646
 
 Excited State   7:      Singlet-A      8.1897 eV  151.39 nm  f=0.0018  <S**2>=0.000
      31 -> 33         0.69888
 
 Excited State   8:      Singlet-A      8.6104 eV  143.99 nm  f=0.0240  <S**2>=0.000
      21 -> 32        -0.13370
      22 -> 32        -0.12769
      23 -> 32         0.21840
      24 -> 32         0.56616
      25 -> 32         0.17035
      27 -> 32         0.19645
 
 Excited State   9:      Singlet-A      8.7741 eV  141.31 nm  f=0.0826  <S**2>=0.000
      23 -> 32        -0.33541
      24 -> 32        -0.10275
      25 -> 32         0.44028
      26 -> 32        -0.19494
      27 -> 32         0.33777
 
 Excited State  10:      Singlet-A      9.0467 eV  137.05 nm  f=0.0007  <S**2>=0.000
      31 -> 34         0.69081
 
 Excited State  11:      Singlet-A      9.2045 eV  134.70 nm  f=0.0077  <S**2>=0.000
      21 -> 32        -0.10307
      22 -> 32        -0.34878
      23 -> 32         0.39297
      24 -> 32        -0.36804
      25 -> 32         0.19938
      31 -> 34         0.10083
 
 Excited State  12:      Singlet-A      9.5384 eV  129.98 nm  f=0.0058  <S**2>=0.000
      31 -> 35         0.64597
      31 -> 36         0.21479
 
 Excited State  13:      Singlet-A      9.5755 eV  129.48 nm  f=0.0485  <S**2>=0.000
      22 -> 32         0.57692
      23 -> 32         0.33189
 
 Excited State  14:      Singlet-A      9.7832 eV  126.73 nm  f=0.0167  <S**2>=0.000
      30 -> 33        -0.21355
      31 -> 35        -0.19646
      31 -> 36         0.47164
      31 -> 37        -0.41497
 
 Excited State  15:      Singlet-A      9.8654 eV  125.68 nm  f=0.0145  <S**2>=0.000
      30 -> 33         0.62948
      31 -> 37        -0.27080
 
 Excited State  16:      Singlet-A      9.9424 eV  124.70 nm  f=0.0174  <S**2>=0.000
      20 -> 32         0.28592
      21 -> 32        -0.25472
      31 -> 36         0.38715
      31 -> 37         0.37710
 
 Excited State  17:      Singlet-A      9.9716 eV  124.34 nm  f=0.0121  <S**2>=0.000
      20 -> 32        -0.35878
      21 -> 32         0.41195
      30 -> 33         0.16273
      31 -> 36         0.24408
      31 -> 37         0.27687
 
 Excited State  18:      Singlet-A     10.1080 eV  122.66 nm  f=0.0037  <S**2>=0.000
      20 -> 32         0.45392
      21 -> 32         0.39757
      23 -> 32         0.13143
      31 -> 38         0.28478
 
 Excited State  19:      Singlet-A     10.2051 eV  121.49 nm  f=0.0176  <S**2>=0.000
      28 -> 33        -0.31495
      29 -> 33         0.60761
 
 Excited State  20:      Singlet-A     10.2201 eV  121.31 nm  f=0.0940  <S**2>=0.000
      20 -> 32        -0.15115
      21 -> 32        -0.21450
      23 -> 32        -0.10543
      31 -> 38         0.61229
 
 Excited State  21:      Singlet-A     10.2992 eV  120.38 nm  f=0.0050  <S**2>=0.000
      28 -> 33         0.60603
      29 -> 33         0.31555
 
 Excited State  22:      Singlet-A     10.5307 eV  117.74 nm  f=0.0077  <S**2>=0.000
      31 -> 39         0.68251
 
 Excited State  23:      Singlet-A     10.6976 eV  115.90 nm  f=0.0179  <S**2>=0.000
      30 -> 34         0.68720
 
 Excited State  24:      Singlet-A     10.9140 eV  113.60 nm  f=0.0121  <S**2>=0.000
      19 -> 32         0.11610
      31 -> 40         0.59951
      31 -> 41         0.24877
      31 -> 42         0.16185
 
 Excited State  25:      Singlet-A     11.0346 eV  112.36 nm  f=0.0100  <S**2>=0.000
      28 -> 34         0.11526
      29 -> 34         0.47024
      31 -> 40        -0.23556
      31 -> 41         0.39232
      31 -> 42         0.16450
 SavETr:  write IOETrn=   770 NScale= 10 NData=  16 NLR=1 LETran=     460.

 **********************************************************************

            Population analysis using the SCF density.

 **********************************************************************

 Orbital symmetries:
       Occupied  (A) (A) (A) (A) (A) (A) (A) (A) (A) (A) (A) (A)
                 (A) (A) (A) (A) (A) (A) (A) (A) (A) (A) (A) (A)
                 (A) (A) (A) (A) (A) (A) (A)
       Virtual   (A) (A) (A) (A) (A) (A) (A) (A) (A) (A) (A) (A)
                 (A) (A) (A) (A) (A) (A) (A) (A) (A) (A) (A) (A)
                 (A) (A) (A) (A) (A) (A) (A) (A) (A) (A) (A) (A)
                 (A) (A) (A) (A) (A) (A) (A) (A) (A) (A) (A) (A)
                 (A) (A) (A) (A) (A) (A) (A) (A) (A) (A) (A) (A)
                 (A) (A) (A) (A) (A) (A) (A) (A) (A) (A) (A) (A)
                 (A) (A) (A) (A) (A) (A) (A) (A) (A) (A) (A) (A)
                 (A) (A) (A) (A) (A) (A) (A) (A) (A) (A) (A) (A)
                 (A) (A) (A) (A) (A) (A) (A) (A) (A) (A) (A) (A)
                 (A) (A) (A) (A) (A) (A) (A) (A) (A) (A) (A) (A)
                 (A) (A) (A) (A) (A) (A) (A) (A) (A) (A) (A) (A)
                 (A) (A)
 The electronic state is 1-A.
 Alpha  occ. eigenvalues --  -24.77407 -19.22487 -10.32886 -10.31626 -10.24543
 Alpha  occ. eigenvalues --  -10.24504 -10.24183 -10.23991  -1.23350  -1.06247
 Alpha  occ. eigenvalues --   -0.86519  -0.78454  -0.75313  -0.66205  -0.61499
 Alpha  occ. eigenvalues --   -0.56208  -0.53834  -0.50447  -0.49576  -0.46545
 Alpha  occ. eigenvalues --   -0.45852  -0.43570  -0.42833  -0.41241  -0.39038
 Alpha  occ. eigenvalues --   -0.37846  -0.36954  -0.34215  -0.34084  -0.32672
 Alpha  occ. eigenvalues --   -0.25771
 Alpha virt. eigenvalues --   -0.03529   0.08399   0.11530   0.13907   0.14475
 Alpha virt. eigenvalues --    0.15036   0.16133   0.17902   0.19021   0.19550
 Alpha virt. eigenvalues --    0.20489   0.22186   0.22857   0.24070   0.28925
 Alpha virt. eigenvalues --    0.30564   0.34183   0.36606   0.51941   0.52526
 Alpha virt. eigenvalues --    0.54856   0.56442   0.57710   0.59050   0.61551
 Alpha virt. eigenvalues --    0.62943   0.65309   0.67113   0.68214   0.70012
 Alpha virt. eigenvalues --    0.72399   0.73470   0.77340   0.80627   0.82582
 Alpha virt. eigenvalues --    0.83732   0.84547   0.86118   0.89240   0.90065
 Alpha virt. eigenvalues --    0.91743   0.92518   0.93930   0.95681   0.96679
 Alpha virt. eigenvalues --    0.98880   1.05510   1.08103   1.09166   1.13608
 Alpha virt. eigenvalues --    1.20706   1.24397   1.32920   1.34925   1.38758
 Alpha virt. eigenvalues --    1.40507   1.43049   1.48135   1.49019   1.55338
 Alpha virt. eigenvalues --    1.61748   1.64596   1.67000   1.67982   1.70295
 Alpha virt. eigenvalues --    1.72294   1.76423   1.77326   1.80240   1.81660
 Alpha virt. eigenvalues --    1.85831   1.88124   1.89752   1.92902   1.93711
 Alpha virt. eigenvalues --    1.97234   1.98923   2.00162   2.02836   2.03901
 Alpha virt. eigenvalues --    2.05684   2.11479   2.13059   2.15944   2.19456
 Alpha virt. eigenvalues --    2.22475   2.23740   2.27215   2.28883   2.31510
 Alpha virt. eigenvalues --    2.33960   2.34454   2.36105   2.39765   2.42182
 Alpha virt. eigenvalues --    2.45046   2.47198   2.49942   2.52966   2.54654
 Alpha virt. eigenvalues --    2.61324   2.64544   2.66149   2.68710   2.72484
 Alpha virt. eigenvalues --    2.75743   2.76413   2.78734   2.82151   2.85086
 Alpha virt. eigenvalues --    2.87273   2.91987   2.94801   2.99478   3.04080
 Alpha virt. eigenvalues --    3.05231   3.13322   3.24389   3.29200   3.32668
 Alpha virt. eigenvalues --    3.36974   3.42082   3.45674   3.50178   3.54005
 Alpha virt. eigenvalues --    3.56461   3.96069   4.26605   4.41834   4.46221
 Alpha virt. eigenvalues --    4.61351   4.70146   4.84703   4.91957
     Molecular Orbital Coefficients:
                           1         2         3         4         5
                           O         O         O         O         O
     Eigenvalues --   -24.77407 -19.22487 -10.32886 -10.31626 -10.24543
   1 1   C  1S         -0.00002   0.00000   0.00149  -0.00001   0.99284
   2        2S         -0.00011   0.00006   0.00006   0.00017   0.04757
   3        2PX         0.00001  -0.00004  -0.00002  -0.00004  -0.00008
   4        2PY        -0.00001   0.00004   0.00011   0.00010  -0.00014
   5        2PZ        -0.00000  -0.00001  -0.00003  -0.00005  -0.00015
   6        3S          0.00083  -0.00060   0.00350  -0.00243  -0.02392
   7        3PX        -0.00035   0.00038   0.00023   0.00173   0.00019
   8        3PY        -0.00038   0.00052  -0.00213   0.00128   0.00334
   9        3PZ         0.00021   0.00025  -0.00033  -0.00031  -0.00066
  10        4XX        -0.00003  -0.00002  -0.00042   0.00011  -0.00752
  11        4YY         0.00000  -0.00003  -0.00029  -0.00004  -0.00739
  12        4ZZ        -0.00003  -0.00001  -0.00013  -0.00006  -0.00717
  13        4XY         0.00001   0.00001   0.00022  -0.00006   0.00014
  14        4XZ        -0.00001  -0.00001   0.00001   0.00002   0.00019
  15        4YZ        -0.00002  -0.00000   0.00002   0.00006   0.00004
  16 2   C  1S          0.00002   0.00002  -0.00014  -0.00024   0.03442
  17        2S          0.00006   0.00012  -0.00052  -0.00059   0.00132
  18        2PX         0.00001   0.00004  -0.00023  -0.00005  -0.00002
  19        2PY        -0.00006  -0.00001   0.00007   0.00021  -0.00003
  20        2PZ        -0.00000  -0.00000  -0.00001   0.00001  -0.00001
  21        3S         -0.00054  -0.00045   0.00188   0.00388   0.00566
  22        3PX        -0.00035  -0.00019   0.00102   0.00109   0.00270
  23        3PY         0.00014   0.00045  -0.00164  -0.00124   0.00019
  24        3PZ         0.00031  -0.00005  -0.00032  -0.00117  -0.00120
  25        4XX         0.00002  -0.00000  -0.00003  -0.00018  -0.00064
  26        4YY         0.00007   0.00002  -0.00010  -0.00026  -0.00045
  27        4ZZ         0.00003   0.00004  -0.00014  -0.00017  -0.00045
  28        4XY        -0.00003   0.00002  -0.00004   0.00007  -0.00010
  29        4XZ         0.00000  -0.00001  -0.00003  -0.00000   0.00014
  30        4YZ        -0.00001  -0.00002   0.00003   0.00002   0.00005
  31 3   C  1S          0.00002  -0.00002   0.00010  -0.00011  -0.00029
  32        2S          0.00001  -0.00009   0.00038  -0.00015  -0.00012
  33        2PX         0.00007   0.00001  -0.00001  -0.00022  -0.00012
  34        2PY        -0.00003   0.00000   0.00000   0.00011  -0.00010
  35        2PZ         0.00003  -0.00000  -0.00001  -0.00007   0.00006
  36        3S          0.00030   0.00069  -0.00288  -0.00148  -0.00103
  37        3PX        -0.00005   0.00038  -0.00173  -0.00033  -0.00056
  38        3PY         0.00008   0.00005  -0.00010  -0.00097   0.00091
  39        3PZ        -0.00023  -0.00000   0.00017   0.00052  -0.00002
  40        4XX         0.00007   0.00001  -0.00003  -0.00011  -0.00008
  41        4YY         0.00005  -0.00004   0.00018  -0.00015  -0.00009
  42        4ZZ         0.00005  -0.00000   0.00007  -0.00017  -0.00013
  43        4XY        -0.00001   0.00000  -0.00001  -0.00006   0.00005
  44        4XZ         0.00002   0.00000   0.00000   0.00000  -0.00001
  45        4YZ        -0.00002  -0.00001   0.00001   0.00004   0.00003
  46 4   C  1S          0.00002   0.00003  -0.00013   0.00161  -0.01669
  47        2S          0.00022   0.00013  -0.00048  -0.00044  -0.00135
  48        2PX        -0.00005   0.00006  -0.00023   0.00009  -0.00003
  49        2PY         0.00002   0.00002  -0.00008  -0.00001  -0.00018
  50        2PZ         0.00000   0.00001   0.00000   0.00004   0.00001
  51        3S         -0.00095  -0.00038   0.00149   0.00776   0.00393
  52        3PX        -0.00028  -0.00018   0.00051   0.00318   0.00083
  53        3PY        -0.00014  -0.00051   0.00175   0.00050   0.00125
  54        3PZ        -0.00044   0.00007   0.00026   0.00168   0.00088
  55        4XX        -0.00003   0.00002  -0.00006  -0.00036  -0.00003
  56        4YY         0.00002   0.00003  -0.00009  -0.00025  -0.00009
  57        4ZZ        -0.00007   0.00006  -0.00016  -0.00017  -0.00003
  58        4XY         0.00003  -0.00003   0.00005   0.00005  -0.00004
  59        4XZ        -0.00007   0.00001   0.00001  -0.00005   0.00001
  60        4YZ         0.00004  -0.00002   0.00004   0.00004   0.00002
  61 5   C  1S         -0.00007   0.00002   0.00972   0.99371   0.00007
  62        2S         -0.00015   0.00013   0.00040   0.04715   0.00004
  63        2PX        -0.00000  -0.00004   0.00003  -0.00029  -0.00002
  64        2PY        -0.00033  -0.00000  -0.00009  -0.00020  -0.00008
  65        2PZ         0.00058  -0.00002  -0.00002   0.00111   0.00006
  66        3S          0.00178  -0.00105   0.00364  -0.02530  -0.00121
  67        3PX        -0.00036   0.00044  -0.00058   0.00186   0.00189
  68        3PY         0.00084  -0.00058   0.00202  -0.00466  -0.00038
  69        3PZ         0.00017  -0.00041   0.00026  -0.00012   0.00005
  70        4XX        -0.00004   0.00001  -0.00045  -0.00728   0.00005
  71        4YY         0.00005  -0.00000  -0.00048  -0.00710   0.00000
  72        4ZZ         0.00040  -0.00002  -0.00025  -0.00670  -0.00007
  73        4XY         0.00005  -0.00002  -0.00025  -0.00016   0.00006
  74        4XZ        -0.00004   0.00000  -0.00003  -0.00022  -0.00001
  75        4YZ        -0.00027   0.00001  -0.00001  -0.00013   0.00005
  76 6   C  1S          0.00003  -0.00003   0.99339  -0.01002  -0.00172
  77        2S          0.00022   0.00036   0.04595  -0.00100  -0.00036
  78        2PX        -0.00000   0.00007   0.00061  -0.00004  -0.00001
  79        2PY        -0.00001  -0.00000  -0.00003   0.00013  -0.00019
  80        2PZ         0.00001   0.00000   0.00002   0.00000  -0.00004
  81        3S         -0.00145  -0.00203  -0.01021   0.00863   0.00674
  82        3PX         0.00055  -0.00397   0.00754  -0.00354  -0.00270
  83        3PY         0.00062  -0.00039   0.00035  -0.00449   0.00402
  84        3PZ        -0.00019  -0.00005   0.00003  -0.00015   0.00051
  85        4XX        -0.00002  -0.00088  -0.00661  -0.00005  -0.00016
  86        4YY        -0.00005  -0.00005  -0.00785  -0.00031  -0.00038
  87        4ZZ         0.00003  -0.00010  -0.00802  -0.00017  -0.00016
  88        4XY        -0.00005  -0.00006   0.00012  -0.00011   0.00020
  89        4XZ         0.00002  -0.00003   0.00004  -0.00002   0.00002
  90        4YZ         0.00005  -0.00002   0.00001  -0.00002   0.00002
  91 7   O  1S         -0.00000   0.99301   0.00001  -0.00005  -0.00003
  92        2S         -0.00003   0.02491   0.00098  -0.00023  -0.00015
  93        2PX         0.00000  -0.00114   0.00010   0.00005   0.00004
  94        2PY         0.00001  -0.00009   0.00002  -0.00002   0.00001
  95        2PZ        -0.00000  -0.00003  -0.00001  -0.00001   0.00002
  96        3S          0.00008   0.01325  -0.00670   0.00104   0.00041
  97        3PX        -0.00009  -0.00161   0.00299  -0.00015   0.00001
  98        3PY        -0.00014  -0.00009   0.00019   0.00065  -0.00057
  99        3PZ         0.00005  -0.00005   0.00015   0.00004  -0.00014
 100        4XX         0.00001  -0.00707  -0.00021  -0.00010  -0.00005
 101        4YY        -0.00001  -0.00757   0.00068  -0.00009  -0.00000
 102        4ZZ        -0.00001  -0.00760   0.00081  -0.00023  -0.00017
 103        4XY         0.00003   0.00004  -0.00007  -0.00010   0.00008
 104        4XZ        -0.00001   0.00002  -0.00005  -0.00000   0.00003
 105        4YZ        -0.00000   0.00000  -0.00001  -0.00000   0.00002
 106 8   F  1S          0.99326  -0.00004  -0.00007  -0.00025   0.00002
 107        2S          0.01982  -0.00022  -0.00036  -0.00103   0.00011
 108        2PX         0.00008  -0.00001  -0.00006   0.00003   0.00003
 109        2PY         0.00035  -0.00002  -0.00007  -0.00007   0.00003
 110        2PZ        -0.00071   0.00001   0.00003  -0.00000  -0.00001
 111        3S          0.01265   0.00077   0.00090   0.00483  -0.00022
 112        3PX        -0.00004  -0.00000   0.00027  -0.00028  -0.00018
 113        3PY        -0.00038   0.00015   0.00015   0.00042  -0.00002
 114        3PZ         0.00066  -0.00012  -0.00008   0.00029  -0.00005
 115        4XX        -0.00723  -0.00012  -0.00036  -0.00053   0.00011
 116        4YY        -0.00734  -0.00015  -0.00017  -0.00063   0.00010
 117        4ZZ        -0.00765  -0.00014  -0.00027  -0.00154   0.00014
 118        4XY        -0.00001   0.00001   0.00011  -0.00012   0.00000
 119        4XZ         0.00005   0.00001  -0.00007   0.00016   0.00004
 120        4YZ         0.00025  -0.00004  -0.00002   0.00045  -0.00001
 121 9   H  1S         -0.00002   0.00001  -0.00002  -0.00002  -0.00000
 122        2S          0.00004  -0.00026   0.00041  -0.00019   0.00250
 123        3PX         0.00000   0.00003  -0.00002  -0.00001   0.00016
 124        3PY         0.00001  -0.00002  -0.00001  -0.00007   0.00015
 125        3PZ        -0.00002   0.00001  -0.00004   0.00005   0.00024
 126 10  H  1S         -0.00003   0.00003  -0.00016   0.00018   0.00005
 127        2S          0.00005   0.00015   0.00028  -0.00012   0.00281
 128        3PX         0.00002  -0.00001   0.00011  -0.00008  -0.00012
 129        3PY         0.00002  -0.00002  -0.00006  -0.00003  -0.00003
 130        3PZ         0.00000   0.00001   0.00004   0.00002  -0.00034
 131 11  H  1S         -0.00002  -0.00001   0.00008  -0.00000  -0.00015
 132        2S         -0.00011  -0.00020   0.00087   0.00051  -0.00001
 133        3PX        -0.00001  -0.00000   0.00003   0.00005  -0.00002
 134        3PY         0.00002   0.00000  -0.00003  -0.00006  -0.00001
 135        3PZ        -0.00001   0.00001  -0.00001   0.00004   0.00001
 136 12  H  1S          0.00008   0.00004  -0.00027  -0.00023  -0.00027
 137        2S         -0.00018   0.00016  -0.00014  -0.00014   0.00004
 138        3PX         0.00002   0.00001  -0.00006  -0.00006   0.00003
 139        3PY        -0.00003  -0.00002   0.00006   0.00009   0.00002
 140        3PZ         0.00001  -0.00001  -0.00000   0.00003  -0.00003
 141 13  H  1S          0.00003  -0.00003   0.00009  -0.00002   0.00008
 142        2S          0.00002   0.00003  -0.00023  -0.00049   0.00036
 143        3PX         0.00002  -0.00002   0.00006  -0.00006   0.00006
 144        3PY        -0.00002   0.00001  -0.00004   0.00007   0.00001
 145        3PZ         0.00002  -0.00000   0.00003  -0.00002  -0.00002
 146 14  H  1S         -0.00005  -0.00003   0.00010   0.00013   0.00000
 147        2S         -0.00019   0.00004  -0.00020   0.00065  -0.00039
 148        3PX        -0.00003  -0.00002   0.00006   0.00008  -0.00002
 149        3PY         0.00002  -0.00001   0.00004  -0.00002  -0.00006
 150        3PZ        -0.00001   0.00000  -0.00004   0.00002   0.00001
 151 15  H  1S          0.00005  -0.00003   0.00009  -0.00018  -0.00002
 152        2S         -0.00006  -0.00023   0.00081   0.00005   0.00045
 153        3PX         0.00000  -0.00000   0.00003   0.00000   0.00004
 154        3PY        -0.00002  -0.00001   0.00003   0.00003   0.00006
 155        3PZ         0.00003  -0.00000  -0.00000  -0.00003  -0.00003
 156 16  H  1S          0.00004   0.00006  -0.00023  -0.00030  -0.00020
 157        2S         -0.00009   0.00014  -0.00015   0.00003  -0.00038
 158        3PX        -0.00000   0.00001  -0.00005   0.00001  -0.00005
 159        3PY         0.00001   0.00002  -0.00008  -0.00005  -0.00009
 160        3PZ         0.00002   0.00000   0.00001   0.00003  -0.00004
 161 17  H  1S         -0.00001  -0.00000  -0.00001  -0.00006  -0.00006
 162        2S          0.00007  -0.00023   0.00051   0.00203  -0.00019
 163        3PX         0.00003   0.00003   0.00000   0.00012  -0.00003
 164        3PY         0.00000   0.00003   0.00003  -0.00006   0.00003
 165        3PZ        -0.00008  -0.00001   0.00006  -0.00024  -0.00003
                           6         7         8         9        10
                           O         O         O         O         O
     Eigenvalues --   -10.24504 -10.24183 -10.23991  -1.23350  -1.06247
   1 1   C  1S          0.01640  -0.03467   0.00196  -0.00137  -0.02041
   2        2S          0.00022  -0.00199  -0.00018   0.00410   0.03558
   3        2PX         0.00003   0.00005   0.00021   0.00027   0.01938
   4        2PY         0.00015  -0.00002   0.00002  -0.00188  -0.01819
   5        2PZ         0.00011  -0.00002  -0.00000   0.00026  -0.00054
   6        3S          0.00291   0.00709   0.00085  -0.00931   0.01363
   7        3PX        -0.00051  -0.00270  -0.00041   0.00647   0.01145
   8        3PY        -0.00147  -0.00104  -0.00092   0.00565   0.00358
   9        3PZ        -0.00042   0.00139  -0.00028  -0.00356   0.00420
  10        4XX        -0.00025  -0.00015  -0.00008   0.00021   0.00335
  11        4YY        -0.00030   0.00010  -0.00004  -0.00006   0.00206
  12        4ZZ        -0.00032   0.00001  -0.00008  -0.00002  -0.00141
  13        4XY        -0.00005  -0.00004   0.00004  -0.00041  -0.00497
  14        4XZ        -0.00003   0.00019  -0.00003  -0.00001  -0.00041
  15        4YZ        -0.00004  -0.00000   0.00003   0.00015  -0.00001
  16 2   C  1S          0.00158   0.99110  -0.06154  -0.00148  -0.00396
  17        2S          0.00028   0.04712  -0.00320   0.00076   0.01036
  18        2PX         0.00004   0.00016  -0.00003   0.00050   0.00560
  19        2PY         0.00004  -0.00010   0.00003  -0.00036  -0.00134
  20        2PZ         0.00008  -0.00001   0.00005  -0.00029  -0.00219
  21        3S         -0.00260  -0.02265   0.00670   0.00833  -0.00313
  22        3PX        -0.00069  -0.00155  -0.00112   0.00618  -0.00612
  23        3PY         0.00085   0.00181  -0.00216  -0.00278   0.01079
  24        3PZ         0.00078   0.00195  -0.00125  -0.00429  -0.00106
  25        4XX         0.00002  -0.00734   0.00015  -0.00014   0.00057
  26        4YY         0.00003  -0.00722   0.00012  -0.00048   0.00020
  27        4ZZ        -0.00005  -0.00725   0.00020  -0.00039   0.00043
  28        4XY        -0.00002  -0.00025  -0.00015   0.00018   0.00031
  29        4XZ         0.00000   0.00003  -0.00008  -0.00012  -0.00055
  30        4YZ         0.00003  -0.00010  -0.00012   0.00003  -0.00023
  31 3   C  1S          0.02276   0.06122   0.99142  -0.00232  -0.00209
  32        2S          0.00058   0.00245   0.04695   0.00280   0.00226
  33        2PX         0.00004   0.00007   0.00006   0.00150   0.00240
  34        2PY         0.00008  -0.00009  -0.00001  -0.00143   0.00039
  35        2PZ         0.00002  -0.00002  -0.00004  -0.00033  -0.00004
  36        3S          0.00724   0.00650  -0.02178  -0.00243   0.01358
  37        3PX         0.00245   0.00219  -0.00240   0.00216   0.00764
  38        3PY        -0.00156   0.00179  -0.00026  -0.00040   0.00068
  39        3PZ        -0.00106   0.00058   0.00009   0.00315  -0.00123
  40        4XX        -0.00038  -0.00064  -0.00732  -0.00024   0.00060
  41        4YY        -0.00049  -0.00081  -0.00734  -0.00029  -0.00044
  42        4ZZ        -0.00045  -0.00069  -0.00721  -0.00041   0.00008
  43        4XY         0.00014  -0.00014  -0.00001  -0.00046   0.00011
  44        4XZ         0.00010  -0.00009   0.00003   0.00005  -0.00002
  45        4YZ        -0.00017  -0.00017  -0.00021   0.00015   0.00014
  46 4   C  1S          0.99317  -0.00233  -0.02297  -0.00909  -0.00282
  47        2S          0.04735   0.00018  -0.00133   0.01318   0.00865
  48        2PX         0.00014  -0.00001  -0.00005   0.01162   0.00460
  49        2PY         0.00012  -0.00002  -0.00004  -0.00342   0.00265
  50        2PZ        -0.00005  -0.00011  -0.00006   0.01004   0.00090
  51        3S         -0.02233  -0.00319   0.00551   0.01903  -0.00260
  52        3PX        -0.00099  -0.00079  -0.00136   0.00377  -0.00371
  53        3PY        -0.00195  -0.00100   0.00199  -0.00022  -0.01241
  54        3PZ        -0.00194  -0.00104   0.00117   0.00906   0.00022
  55        4XX        -0.00746   0.00004  -0.00017   0.00287   0.00067
  56        4YY        -0.00724   0.00007  -0.00013  -0.00060   0.00035
  57        4ZZ        -0.00727  -0.00005  -0.00012   0.00146   0.00038
  58        4XY         0.00020   0.00003   0.00015  -0.00111  -0.00013
  59        4XZ         0.00000  -0.00004   0.00009   0.00313   0.00028
  60        4YZ        -0.00015   0.00002  -0.00013  -0.00075  -0.00009
  61 5   C  1S         -0.00193  -0.00006   0.00002  -0.06256  -0.01498
  62        2S         -0.00039  -0.00076  -0.00038   0.11763   0.02751
  63        2PX         0.00001   0.00008   0.00023  -0.01085   0.01886
  64        2PY         0.00004  -0.00023  -0.00002  -0.03809   0.02519
  65        2PZ        -0.00003  -0.00006  -0.00000   0.08986  -0.00631
  66        3S          0.00588   0.00478   0.00163   0.01054   0.00602
  67        3PX        -0.00231  -0.00119  -0.00096   0.00351   0.01378
  68        3PY         0.00046   0.00199   0.00082  -0.00923  -0.00159
  69        3PZ        -0.00101   0.00120   0.00066  -0.00561  -0.00337
  70        4XX        -0.00043  -0.00018  -0.00009  -0.00897   0.00304
  71        4YY        -0.00015  -0.00021  -0.00007  -0.00426   0.00351
  72        4ZZ        -0.00023  -0.00015  -0.00006   0.01506  -0.00242
  73        4XY         0.00000   0.00009  -0.00003   0.00177   0.00496
  74        4XZ        -0.00014   0.00004   0.00001  -0.00265   0.00084
  75        4YZ        -0.00000  -0.00010  -0.00001  -0.01302   0.00140
  76 6   C  1S         -0.00003   0.00006   0.00004  -0.01093  -0.11769
  77        2S         -0.00021  -0.00012   0.00031   0.01652   0.22309
  78        2PX         0.00009   0.00012  -0.00005  -0.00338   0.17002
  79        2PY         0.00004  -0.00000   0.00001  -0.01320   0.01186
  80        2PZ         0.00002  -0.00003   0.00001   0.00367   0.00341
  81        3S         -0.00186  -0.00242  -0.00163   0.02545   0.06992
  82        3PX        -0.00080   0.00015   0.00216  -0.01194  -0.05455
  83        3PY        -0.00074   0.00100   0.00011  -0.01174  -0.00376
  84        3PZ        -0.00002  -0.00012  -0.00013   0.00614  -0.00226
  85        4XX        -0.00016  -0.00013   0.00004   0.00139   0.02257
  86        4YY        -0.00011  -0.00011   0.00011   0.00350  -0.01561
  87        4ZZ        -0.00012  -0.00009   0.00014  -0.00125  -0.01658
  88        4XY         0.00005  -0.00008  -0.00001   0.00276   0.00277
  89        4XZ         0.00006  -0.00008   0.00001  -0.00056   0.00107
  90        4YZ         0.00002   0.00003   0.00003  -0.00129   0.00022
  91 7   O  1S         -0.00008  -0.00004   0.00005  -0.00525  -0.19319
  92        2S         -0.00034  -0.00017   0.00021   0.01050   0.41856
  93        2PX         0.00001  -0.00001  -0.00000  -0.00510  -0.15223
  94        2PY        -0.00000   0.00001   0.00000  -0.00168  -0.01051
  95        2PZ        -0.00002   0.00003  -0.00001   0.00044  -0.00426
  96        3S          0.00202   0.00099  -0.00146   0.01268   0.42214
  97        3PX        -0.00065  -0.00036   0.00027  -0.00195  -0.06655
  98        3PY         0.00003  -0.00016   0.00001   0.00112  -0.00459
  99        3PZ         0.00002  -0.00007   0.00006  -0.00092  -0.00216
 100        4XX        -0.00011  -0.00003   0.00012  -0.00019   0.01203
 101        4YY        -0.00024  -0.00011   0.00013  -0.00067  -0.01036
 102        4ZZ        -0.00023  -0.00011   0.00013  -0.00054  -0.00539
 103        4XY         0.00000   0.00003   0.00000   0.00015   0.00191
 104        4XZ         0.00001  -0.00000  -0.00001   0.00003   0.00062
 105        4YZ        -0.00001  -0.00001   0.00000  -0.00015  -0.00032
 106 8   F  1S         -0.00006   0.00010   0.00002  -0.22004   0.01505
 107        2S         -0.00034   0.00062   0.00016   0.49311  -0.03482
 108        2PX         0.00006  -0.00001   0.00001   0.00770   0.00281
 109        2PY        -0.00002   0.00005  -0.00002   0.03947   0.00302
 110        2PZ         0.00007  -0.00003  -0.00002  -0.08088   0.00031
 111        3S          0.00069  -0.00244  -0.00076   0.46251  -0.03351
 112        3PX        -0.00018   0.00010   0.00009   0.00363   0.00032
 113        3PY         0.00002  -0.00054  -0.00010   0.02396   0.00138
 114        3PZ        -0.00013   0.00039   0.00020  -0.04588  -0.00029
 115        4XX        -0.00014   0.00039   0.00007   0.00916  -0.00079
 116        4YY        -0.00037   0.00032   0.00006   0.01344  -0.00126
 117        4ZZ        -0.00022   0.00039   0.00005   0.02506  -0.00132
 118        4XY        -0.00004   0.00001  -0.00001   0.00089   0.00025
 119        4XZ         0.00012  -0.00003  -0.00006  -0.00188   0.00007
 120        4YZ        -0.00009   0.00008   0.00001  -0.00921  -0.00022
 121 9   H  1S          0.00000  -0.00017   0.00004   0.00050   0.00869
 122        2S          0.00053  -0.00018   0.00056  -0.00124  -0.00121
 123        3PX        -0.00003  -0.00001  -0.00003  -0.00010   0.00004
 124        3PY        -0.00003  -0.00000  -0.00001  -0.00020  -0.00141
 125        3PZ        -0.00005  -0.00004  -0.00001   0.00016  -0.00065
 126 10  H  1S         -0.00022  -0.00027  -0.00010   0.00067   0.00737
 127        2S         -0.00039   0.00005  -0.00005  -0.00085   0.00275
 128        3PX         0.00003   0.00000   0.00007  -0.00019  -0.00003
 129        3PY         0.00010   0.00000   0.00003  -0.00021  -0.00032
 130        3PZ         0.00002   0.00006   0.00002   0.00005   0.00089
 131 11  H  1S          0.00000  -0.00011  -0.00014   0.00040   0.00058
 132        2S         -0.00004   0.00225  -0.00017   0.00238  -0.00585
 133        3PX        -0.00001  -0.00019   0.00003   0.00007   0.00005
 134        3PY        -0.00001   0.00028  -0.00004  -0.00022   0.00002
 135        3PZ        -0.00005  -0.00007   0.00001   0.00010   0.00004
 136 12  H  1S          0.00018   0.00013  -0.00022  -0.00001   0.00313
 137        2S         -0.00008   0.00298  -0.00017   0.00310   0.00274
 138        3PX         0.00003   0.00014  -0.00004  -0.00010   0.00018
 139        3PY        -0.00000  -0.00020  -0.00001   0.00003  -0.00024
 140        3PZ        -0.00002   0.00020  -0.00006  -0.00019  -0.00034
 141 13  H  1S         -0.00030  -0.00021  -0.00001   0.00051   0.00027
 142        2S         -0.00000   0.00021   0.00271   0.00087   0.00122
 143        3PX        -0.00001  -0.00001  -0.00005   0.00002  -0.00013
 144        3PY        -0.00001   0.00001  -0.00018   0.00016   0.00012
 145        3PZ        -0.00003   0.00000   0.00024  -0.00023  -0.00005
 146 14  H  1S         -0.00022  -0.00032  -0.00002   0.00063   0.00025
 147        2S          0.00008   0.00003   0.00266   0.00322   0.00056
 148        3PX        -0.00000  -0.00002  -0.00013   0.00017  -0.00015
 149        3PY        -0.00002   0.00002   0.00018  -0.00019  -0.00013
 150        3PZ         0.00001   0.00003  -0.00024   0.00009   0.00007
 151 15  H  1S         -0.00009   0.00002  -0.00011   0.00241  -0.00001
 152        2S          0.00235  -0.00007  -0.00005   0.00125  -0.00636
 153        3PX        -0.00015  -0.00002   0.00001   0.00047  -0.00004
 154        3PY        -0.00029   0.00002   0.00004   0.00036  -0.00010
 155        3PZ         0.00009   0.00006  -0.00000   0.00013  -0.00003
 156 16  H  1S          0.00006   0.00019  -0.00023   0.00164   0.00297
 157        2S          0.00288  -0.00009  -0.00007   0.00056   0.00236
 158        3PX         0.00009   0.00004  -0.00003  -0.00021   0.00023
 159        3PY         0.00023   0.00001   0.00001  -0.00007   0.00035
 160        3PZ        -0.00025   0.00003   0.00007  -0.00003   0.00029
 161 17  H  1S         -0.00018   0.00005   0.00006   0.01785   0.00685
 162        2S         -0.00019   0.00072   0.00062   0.00095  -0.00134
 163        3PX        -0.00001  -0.00004  -0.00003  -0.00214  -0.00003
 164        3PY         0.00001   0.00004   0.00003   0.00179   0.00112
 165        3PZ         0.00001   0.00005   0.00001   0.00342   0.00039
                          11        12        13        14        15
                           O         O         O         O         O
     Eigenvalues --    -0.86519  -0.78454  -0.75313  -0.66205  -0.61499
   1 1   C  1S         -0.08775  -0.11448   0.07468  -0.08367   0.00860
   2        2S          0.15969   0.21336  -0.13971   0.16136  -0.01522
   3        2PX        -0.02995  -0.02563  -0.04855   0.07772   0.09953
   4        2PY        -0.03817  -0.00269   0.03564   0.02072  -0.09489
   5        2PZ         0.01099   0.02290   0.01560  -0.04788  -0.06060
   6        3S          0.13328   0.19697  -0.14081   0.18389  -0.02180
   7        3PX        -0.00755  -0.00204  -0.00276   0.02046   0.02711
   8        3PY        -0.01105  -0.00244   0.01108   0.00042  -0.02614
   9        3PZ         0.00061   0.00418   0.00430  -0.01456  -0.02015
  10        4XX         0.00082   0.00161   0.00568  -0.00489  -0.00423
  11        4YY         0.00043  -0.00364  -0.00367  -0.00066   0.00800
  12        4ZZ        -0.00291  -0.00157   0.00238  -0.00037  -0.00333
  13        4XY         0.00088   0.00035   0.00454  -0.00233  -0.00609
  14        4XZ        -0.00315  -0.00329  -0.00121   0.00483   0.00419
  15        4YZ        -0.00079  -0.00118  -0.00079   0.00173   0.00053
  16 2   C  1S         -0.09777  -0.09472  -0.05342   0.08955   0.08090
  17        2S          0.17763   0.17547   0.09973  -0.17037  -0.15791
  18        2PX         0.01748   0.04572  -0.08101   0.06779  -0.04254
  19        2PY        -0.02710   0.02693  -0.04360   0.01567  -0.10127
  20        2PZ        -0.03530  -0.01307  -0.00321  -0.04386  -0.05449
  21        3S          0.14256   0.15677   0.09766  -0.19177  -0.17849
  22        3PX         0.00394   0.00962  -0.01427   0.01218  -0.01197
  23        3PY        -0.00914   0.00198  -0.00824   0.00950  -0.03505
  24        3PZ        -0.00399  -0.00536  -0.00591  -0.01394  -0.01995
  25        4XX         0.00140   0.00317  -0.00418   0.00500   0.00278
  26        4YY        -0.00064  -0.00463   0.00320  -0.00010   0.00269
  27        4ZZ        -0.00188  -0.00220  -0.00108   0.00245   0.00090
  28        4XY         0.00306   0.00150   0.00404   0.00179   0.00393
  29        4XZ        -0.00180  -0.00422   0.00595  -0.00444   0.00274
  30        4YZ         0.00288  -0.00198   0.00394  -0.00048   0.00511
  31 3   C  1S         -0.09678   0.01506  -0.12610   0.01276  -0.09589
  32        2S          0.17776  -0.02815   0.23615  -0.02462   0.18723
  33        2PX         0.04731  -0.00465  -0.00549   0.00656  -0.06929
  34        2PY         0.00420   0.06960   0.00691  -0.09363  -0.01996
  35        2PZ        -0.00400   0.04314   0.00477  -0.08747  -0.01069
  36        3S          0.13204  -0.02666   0.21670  -0.02785   0.20647
  37        3PX         0.00631   0.00006  -0.00099   0.00289  -0.02249
  38        3PY         0.00198   0.00921  -0.00037  -0.02661  -0.00652
  39        3PZ        -0.00225   0.00959   0.00128  -0.02257  -0.00255
  40        4XX         0.00091  -0.00037  -0.00392   0.00026  -0.00114
  41        4YY         0.00101   0.00085  -0.00046  -0.00053  -0.00645
  42        4ZZ        -0.00230  -0.00047  -0.00120   0.00082  -0.00140
  43        4XY         0.00034   0.00750   0.00062  -0.00643  -0.00094
  44        4XZ        -0.00058   0.00463   0.00046  -0.00568  -0.00022
  45        4YZ         0.00495  -0.00070   0.00286   0.00029  -0.00618
  46 4   C  1S         -0.09657   0.11334  -0.03096  -0.09301   0.05906
  47        2S          0.17624  -0.21179   0.05635   0.17630  -0.11585
  48        2PX         0.01383  -0.03570  -0.09642  -0.06006  -0.07445
  49        2PY         0.03145   0.01329   0.03402  -0.01001   0.10200
  50        2PZ         0.02973  -0.00865   0.01509  -0.04240   0.05150
  51        3S          0.14288  -0.18775   0.06214   0.20182  -0.13234
  52        3PX         0.00304  -0.00474  -0.01526  -0.00696  -0.02381
  53        3PY         0.01130   0.00144   0.00569   0.00424   0.03794
  54        3PZ         0.00371   0.00100   0.00682  -0.00937   0.01681
  55        4XX         0.00182  -0.00323  -0.00510  -0.00638   0.00170
  56        4YY        -0.00111   0.00411   0.00282  -0.00035   0.00138
  57        4ZZ        -0.00193   0.00281   0.00097  -0.00150   0.00126
  58        4XY        -0.00217   0.00144  -0.00451   0.00176  -0.00240
  59        4XZ         0.00024  -0.00216  -0.00641  -0.00285  -0.00461
  60        4YZ         0.00346   0.00060   0.00356  -0.00172   0.00550
  61 5   C  1S         -0.06942   0.09432   0.09193   0.08197   0.01834
  62        2S          0.13353  -0.18395  -0.18354  -0.16866  -0.03683
  63        2PX        -0.03859   0.04326  -0.04688  -0.11419   0.10114
  64        2PY         0.04826  -0.00343  -0.05521  -0.01207   0.14690
  65        2PZ        -0.03160   0.05283   0.01617  -0.03200   0.06516
  66        3S          0.10066  -0.16603  -0.16298  -0.17708  -0.04051
  67        3PX        -0.00730   0.00545  -0.00430  -0.03022   0.02563
  68        3PY         0.01526  -0.01572  -0.02045  -0.02072   0.04077
  69        3PZ        -0.01130   0.02281   0.01789   0.00763   0.02536
  70        4XX         0.00330  -0.00522   0.00528   0.00690  -0.00482
  71        4YY         0.00106   0.00407  -0.00434  -0.00130   0.00807
  72        4ZZ        -0.00543   0.00471   0.00407   0.00026  -0.00169
  73        4XY        -0.00093   0.00012  -0.00306  -0.00194   0.00400
  74        4XZ         0.00262  -0.00343  -0.00044   0.00352  -0.00120
  75        4YZ         0.00183  -0.00052  -0.00183  -0.00151   0.00242
  76 6   C  1S         -0.04296  -0.00703   0.07901   0.00781  -0.09073
  77        2S          0.08517   0.01136  -0.16101  -0.01894   0.19127
  78        2PX        -0.10947  -0.02021   0.13706  -0.00112  -0.09209
  79        2PY        -0.00024   0.10599   0.02361   0.17719  -0.01573
  80        2PZ        -0.00384   0.01784   0.00969  -0.00570  -0.00114
  81        3S          0.04433   0.02291  -0.11518  -0.00424   0.18329
  82        3PX        -0.02317  -0.00646   0.03608   0.00046  -0.04792
  83        3PY         0.00122   0.00329   0.00265   0.02912  -0.00776
  84        3PZ        -0.00163   0.00230   0.00249  -0.00657  -0.00038
  85        4XX        -0.00383  -0.00047   0.00909   0.00129  -0.00754
  86        4YY         0.00749   0.00031  -0.01195  -0.00207   0.00271
  87        4ZZ        -0.00192  -0.00043   0.00362   0.00018  -0.00441
  88        4XY        -0.00141  -0.00873   0.00041  -0.00590  -0.00028
  89        4XZ        -0.00011  -0.00147  -0.00018   0.00124   0.00015
  90        4YZ         0.00133  -0.00074  -0.00124  -0.00054  -0.00194
  91 7   O  1S          0.04027   0.00672  -0.05471  -0.00429   0.04903
  92        2S         -0.09327  -0.01456   0.12686   0.01123  -0.11342
  93        2PX         0.01023  -0.00244   0.01499   0.00031  -0.07540
  94        2PY         0.00262   0.02449   0.00382   0.06236  -0.00820
  95        2PZ        -0.00008   0.00472   0.00218  -0.00141  -0.00065
  96        3S         -0.08159  -0.01916   0.13309   0.00809  -0.14518
  97        3PX        -0.00199   0.00003   0.01284   0.00247  -0.04039
  98        3PY         0.00004   0.01185   0.00279   0.03133  -0.00401
  99        3PZ         0.00012   0.00256   0.00081   0.00052  -0.00007
 100        4XX        -0.00037   0.00085  -0.00280   0.00057   0.00749
 101        4YY        -0.00014   0.00007  -0.00009  -0.00019  -0.00054
 102        4ZZ        -0.00093   0.00020   0.00159   0.00077  -0.00201
 103        4XY        -0.00018  -0.00323  -0.00067  -0.00659   0.00091
 104        4XZ        -0.00001  -0.00068  -0.00030   0.00020   0.00021
 105        4YZ         0.00010  -0.00012  -0.00015  -0.00015  -0.00004
 106 8   F  1S          0.03370  -0.03766  -0.03239  -0.03490  -0.00848
 107        2S         -0.07293   0.08182   0.07000   0.07323   0.01775
 108        2PX        -0.00864   0.00670  -0.02456  -0.05883   0.04086
 109        2PY         0.02366  -0.02490  -0.04154  -0.07056   0.05038
 110        2PZ        -0.03172   0.07114   0.06705   0.11528   0.07950
 111        3S         -0.10011   0.11888   0.10524   0.12495   0.03147
 112        3PX        -0.00337   0.00231  -0.01486  -0.03489   0.02470
 113        3PY         0.01122  -0.01244  -0.02264  -0.04120   0.03042
 114        3PZ        -0.01667   0.03998   0.03893   0.06796   0.04794
 115        4XX        -0.00013   0.00073   0.00102  -0.00001   0.00063
 116        4YY         0.00116   0.00027  -0.00126  -0.00256   0.00362
 117        4ZZ         0.00308  -0.00614  -0.00535  -0.00788  -0.00661
 118        4XY        -0.00029  -0.00003  -0.00129  -0.00211   0.00183
 119        4XZ         0.00040  -0.00022   0.00207   0.00437  -0.00244
 120        4YZ        -0.00223   0.00317   0.00409   0.00533  -0.00165
[...]
  77        2S          0.71946
  78        2PX         0.73070
  79        2PY         0.73938
  80        2PZ         0.45057
  81        3S          0.40159
  82        3PX         0.05317
  83        3PY         0.15603
  84        3PZ         0.28295
  85        4XX         0.01976
  86        4YY         0.00344
  87        4ZZ        -0.02066
  88        4XY         0.04006
  89        4XZ         0.01473
  90        4YZ         0.00359
  91 7   O  1S          1.99300
  92        2S          0.91624
  93        2PX         0.91660
  94        2PY         1.14273
  95        2PZ         0.76714
  96        3S          1.03778
  97        3PX         0.44299
  98        3PY         0.69586
  99        3PZ         0.52490
 100        4XX         0.00629
 101        4YY        -0.01119
 102        4ZZ        -0.00354
 103        4XY         0.00667
 104        4XZ         0.01096
 105        4YZ         0.00010
 106 8   F  1S          1.99366
 107        2S          0.94921
 108        2PX         1.18980
 109        2PY         1.13380
 110        2PZ         0.97426
 111        3S          0.96827
 112        3PX         0.73671
 113        3PY         0.70742
 114        3PZ         0.59018
 115        4XX         0.00999
 116        4YY         0.01510
 117        4ZZ         0.03111
 118        4XY         0.00098
 119        4XZ         0.00366
 120        4YZ         0.00533
 121 9   H  1S          0.51934
 122        2S          0.29840
 123        3PX         0.00354
 124        3PY         0.00465
 125        3PZ         0.00345
 126 10  H  1S          0.51836
 127        2S          0.30740
 128        3PX         0.00266
 129        3PY         0.00295
 130        3PZ         0.00656
 131 11  H  1S          0.52542
 132        2S          0.32252
 133        3PX         0.00378
 134        3PY         0.00552
 135        3PZ         0.00234
 136 12  H  1S          0.52406
 137        2S          0.31128
 138        3PX         0.00236
 139        3PY         0.00272
 140        3PZ         0.00643
 141 13  H  1S          0.52529
 142        2S          0.31650
 143        3PX         0.00355
 144        3PY         0.00345
 145        3PZ         0.00460
 146 14  H  1S          0.52650
 147        2S          0.32834
 148        3PX         0.00451
 149        3PY         0.00307
 150        3PZ         0.00406
 151 15  H  1S          0.52284
 152        2S          0.31180
 153        3PX         0.00325
 154        3PY         0.00610
 155        3PZ         0.00232
 156 16  H  1S          0.52340
 157        2S          0.32627
 158        3PX         0.00217
 159        3PY         0.00292
 160        3PZ         0.00657
 161 17  H  1S          0.53598
 162        2S          0.31497
 163        3PX         0.00403
 164        3PY         0.00391
 165        3PZ         0.00361
          Condensed to atoms (all electrons):
              1          2          3          4          5          6
     1  C    5.232248   0.310439  -0.046148   0.001536  -0.119371   0.333373
     2  C    0.310439   5.064089   0.348739  -0.064149   0.008913  -0.037661
     3  C   -0.046148   0.348739   5.021517   0.329091  -0.035375  -0.024042
     4  C    0.001536  -0.064149   0.329091   5.219396   0.281372  -0.034809
     5  C   -0.119371   0.008913  -0.035375   0.281372   4.870860   0.303007
     6  C    0.333373  -0.037661  -0.024042  -0.034809   0.303007   4.645142
     7  O   -0.075760   0.002221   0.000126   0.003543  -0.058942   0.527233
     8  F    0.000707  -0.000225   0.004746  -0.045644   0.233703  -0.024559
     9  H    0.380742  -0.031956   0.004413   0.000055   0.004948  -0.028800
    10  H    0.374390  -0.036937  -0.003336  -0.000955   0.001757  -0.028754
    11  H   -0.028691   0.386904  -0.032860   0.004734  -0.000398   0.003493
    12  H   -0.043845   0.397899  -0.038879  -0.002126   0.001914  -0.005337
    13  H    0.004167  -0.034699   0.396573  -0.034584  -0.003374   0.000550
    14  H   -0.000952  -0.037040   0.393292  -0.037123   0.004360   0.000161
    15  H   -0.000443   0.004973  -0.036925   0.382546  -0.021817   0.004289
    16  H    0.001487  -0.001482  -0.037454   0.365714  -0.030696   0.000278
    17  H    0.006817  -0.000056   0.005941  -0.054456   0.377347  -0.045748
              7          8          9         10         11         12
     1  C   -0.075760   0.000707   0.380742   0.374390  -0.028691  -0.043845
     2  C    0.002221  -0.000225  -0.031956  -0.036937   0.386904   0.397899
     3  C    0.000126   0.004746   0.004413  -0.003336  -0.032860  -0.038879
     4  C    0.003543  -0.045644   0.000055  -0.000955   0.004734  -0.002126
     5  C   -0.058942   0.233703   0.004948   0.001757  -0.000398   0.001914
     6  C    0.527233  -0.024559  -0.028800  -0.028754   0.003493  -0.005337
     7  O    8.046081  -0.000578   0.002168   0.000008  -0.000081   0.000195
     8  F   -0.000578   9.163893  -0.000100  -0.000009   0.000064   0.002854
     9  H    0.002168  -0.000100   0.524666  -0.019847  -0.002913  -0.003614
    10  H    0.000008  -0.000009  -0.019847   0.549550  -0.005318   0.005277
    11  H   -0.000081   0.000064  -0.002913  -0.005318   0.574156  -0.030866
    12  H    0.000195   0.002854  -0.003614   0.005277  -0.030866   0.568234
    13  H    0.000003   0.001751  -0.000138  -0.000058   0.001313  -0.009952
    14  H    0.000002   0.000052  -0.000116   0.002181  -0.009760   0.005266
    15  H   -0.000066  -0.000240   0.000005   0.000053  -0.000132  -0.000081
    16  H   -0.000051   0.002604  -0.000015   0.000277  -0.000070  -0.000123
    17  H    0.000417  -0.029545  -0.000119  -0.000349   0.000016   0.000046
             13         14         15         16         17
     1  C    0.004167  -0.000952  -0.000443   0.001487   0.006817
     2  C   -0.034699  -0.037040   0.004973  -0.001482  -0.000056
     3  C    0.396573   0.393292  -0.036925  -0.037454   0.005941
     4  C   -0.034584  -0.037123   0.382546   0.365714  -0.054456
     5  C   -0.003374   0.004360  -0.021817  -0.030696   0.377347
     6  C    0.000550   0.000161   0.004289   0.000278  -0.045748
     7  O    0.000003   0.000002  -0.000066  -0.000051   0.000417
     8  F    0.001751   0.000052  -0.000240   0.002604  -0.029545
     9  H   -0.000138  -0.000116   0.000005  -0.000015  -0.000119
    10  H   -0.000058   0.002181   0.000053   0.000277  -0.000349
    11  H    0.001313  -0.009760  -0.000132  -0.000070   0.000016
    12  H   -0.009952   0.005266  -0.000081  -0.000123   0.000046
    13  H    0.567917  -0.033027  -0.008144   0.005148  -0.000073
    14  H   -0.033027   0.587871   0.001169  -0.009731  -0.000128
    15  H   -0.008144   0.001169   0.553756  -0.027355  -0.005277
    16  H    0.005148  -0.009731  -0.027355   0.592670   0.000130
    17  H   -0.000073  -0.000128  -0.005277   0.000130   0.607540
 Mulliken atomic charges:
              1
     1  C   -0.330694
     2  C   -0.279973
     3  C   -0.249420
     4  C   -0.314142
     5  C    0.181792
     6  C    0.412183
     7  O   -0.446519
     8  F   -0.309474
     9  H    0.170623
    10  H    0.162073
    11  H    0.140410
    12  H    0.153139
    13  H    0.146625
    14  H    0.133524
    15  H    0.153690
    16  H    0.138667
    17  H    0.137497
 Sum of Mulliken atomic charges =  -0.00000
 Mulliken charges with hydrogens summed into heavy atoms:
              1
     1  C    0.002001
     2  C    0.013576
     3  C    0.030729
     4  C   -0.021785
     5  C    0.319289
     6  C    0.412183
     7  O   -0.446519
     8  F   -0.309474
 Sum of Mulliken charges with hydrogens summed into heavy atoms =  -0.00000
 Electronic spatial extent (au):  <R**2>=            876.6609
 Charge=             -0.0000 electrons
 Dipole moment (field-independent basis, Debye):
    X=             -3.0410    Y=              0.6985    Z=             -1.2912  Tot=              3.3768
 Quadrupole moment (field-independent basis, Debye-Ang):
   XX=            -54.0108   YY=            -45.6324   ZZ=            -45.8301
   XY=             -1.0754   XZ=              0.0723   YZ=              2.1143
 Traceless Quadrupole moment (field-independent basis, Debye-Ang):
   XX=             -5.5197   YY=              2.8587   ZZ=              2.6610
   XY=             -1.0754   XZ=              0.0723   YZ=              2.1143
 Octapole moment (field-independent basis, Debye-Ang**2):
  XXX=            -14.0251  YYY=             -6.9208  ZZZ=              5.2121  XYY=              2.0157
  XXY=             -7.6927  XXZ=              3.4541  XZZ=              3.3202  YZZ=             -1.5333
  YYZ=             -1.0933  XYZ=              1.6134
 Hexadecapole moment (field-independent basis, Debye-Ang**3):
 XXXX=           -581.4766 YYYY=           -380.4766 ZZZZ=           -151.9422 XXXY=             -9.7602
 XXXZ=              4.2459 YYYX=              1.0208 YYYZ=             -4.1669 ZZZX=              0.2118
 ZZZY=            -13.6106 XXYY=           -148.9705 XXZZ=           -111.3867 YYZZ=            -91.1047
 XXYZ=             -3.1497 YYXZ=              0.0598 ZZXY=              0.3456
 N-N= 3.959558182478D+02 E-N=-1.748564866658D+03  KE= 4.054719350515D+02
 Orbital energies and kinetic energies (alpha):
                                 1                 2
   1         O               -24.774072         37.099122
   2         O               -19.224874         29.045451
   3         O               -10.328860         15.903965
   4         O               -10.316258         15.908769
   5         O               -10.245427         15.902890
   6         O               -10.245036         15.903458
   7         O               -10.241828         15.904481
   8         O               -10.239910         15.904892
   9         O                -1.233504          3.584133
  10         O                -1.062472          2.625166
  11         O                -0.865189          1.420051
  12         O                -0.784540          1.524054
  13         O                -0.753129          1.632618
  14         O                -0.662054          1.522720
  15         O                -0.614991          1.526347
  16         O                -0.562079          1.802528
  17         O                -0.538335          1.599657
  18         O                -0.504466          1.421309
  19         O                -0.495760          1.704874
  20         O                -0.465450          1.765526
  21         O                -0.458523          1.719882
  22         O                -0.435697          1.397714
  23         O                -0.428333          1.712900
  24         O                -0.412412          1.414070
  25         O                -0.390380          1.941039
  26         O                -0.378457          1.787223
  27         O                -0.369537          2.082106
  28         O                -0.342150          1.486236
  29         O                -0.340839          1.459349
  30         O                -0.326725          1.730804
  31         O                -0.257714          2.302635
  32         V                -0.035291          1.968729
  33         V                 0.083994          0.923152
  34         V                 0.115298          0.869856
  35         V                 0.139069          1.148764
  36         V                 0.144745          0.968870
  37         V                 0.150364          1.142715
  38         V                 0.161334          1.174815
  39         V                 0.179023          1.375982
  40         V                 0.190208          1.522051
  41         V                 0.195499          1.520822
  42         V                 0.204894          1.407957
  43         V                 0.221859          1.813670
  44         V                 0.228575          1.504731
  45         V                 0.240704          1.315150
  46         V                 0.289253          1.968754
  47         V                 0.305644          1.817649
  48         V                 0.341829          1.673265
  49         V                 0.366065          1.986828
  50         V                 0.519406          1.799844
  51         V                 0.525260          1.956444
  52         V                 0.548556          1.914791
  53         V                 0.564423          2.128006
  54         V                 0.577100          1.915982
  55         V                 0.590502          2.280204
  56         V                 0.615512          2.188698
  57         V                 0.629432          2.733728
  58         V                 0.653086          2.370403
  59         V                 0.671128          2.665300
  60         V                 0.682140          2.816659
  61         V                 0.700115          2.255581
  62         V                 0.723988          2.623725
  63         V                 0.734700          2.584667
  64         V                 0.773403          2.268341
  65         V                 0.806274          2.348764
  66         V                 0.825818          2.288486
  67         V                 0.837318          2.379914
  68         V                 0.845475          2.517136
  69         V                 0.861178          2.494003
  70         V                 0.892403          2.465424
  71         V                 0.900646          2.533967
  72         V                 0.917426          2.494093
  73         V                 0.925182          2.492050
  74         V                 0.939300          2.422390
  75         V                 0.956811          2.593470
  76         V                 0.966790          2.561853
  77         V                 0.988802          2.263122
  78         V                 1.055101          2.345324
  79         V                 1.081032          3.034313
  80         V                 1.091660          2.891845
  81         V                 1.136081          3.221809
  82         V                 1.207061          2.556805
  83         V                 1.243968          2.521511
  84         V                 1.329201          2.776346
  85         V                 1.349247          2.864812
  86         V                 1.387583          3.101328
  87         V                 1.405074          3.520540
  88         V                 1.430493          3.270858
  89         V                 1.481351          2.599123
  90         V                 1.490191          2.600499
  91         V                 1.553384          2.697217
  92         V                 1.617478          2.799375
  93         V                 1.645960          2.887281
  94         V                 1.669996          2.801773
  95         V                 1.679825          2.998223
  96         V                 1.702954          2.913524
  97         V                 1.722936          2.887666
  98         V                 1.764233          2.969139
  99         V                 1.773258          3.023530
 100         V                 1.802399          2.932680
 101         V                 1.816600          2.965761
 102         V                 1.858307          3.127344
 103         V                 1.881244          3.255681
 104         V                 1.897522          3.129940
 105         V                 1.929021          3.284399
 106         V                 1.937110          3.083213
 107         V                 1.972338          3.358726
 108         V                 1.989225          3.453974
 109         V                 2.001625          3.345370
 110         V                 2.028365          3.196328
 111         V                 2.039013          3.316112
 112         V                 2.056841          3.295766
 113         V                 2.114787          3.320057
 114         V                 2.130587          3.341367
 115         V                 2.159443          3.426432
 116         V                 2.194560          3.377631
 117         V                 2.224747          3.254667
 118         V                 2.237401          3.381227
 119         V                 2.272146          3.529903
 120         V                 2.288829          3.479089
 121         V                 2.315099          3.443421
 122         V                 2.339597          3.532053
 123         V                 2.344536          3.532049
 124         V                 2.361054          3.551794
 125         V                 2.397649          3.508213
 126         V                 2.421824          3.679927
 127         V                 2.450459          3.799427
 128         V                 2.471983          3.564027
 129         V                 2.499419          3.743474
 130         V                 2.529660          3.596064
 131         V                 2.546540          3.512213
 132         V                 2.613240          3.724860
 133         V                 2.645439          3.705458
 134         V                 2.661493          4.083461
 135         V                 2.687098          3.966098
 136         V                 2.724841          3.940419
 137         V                 2.757435          3.927651
 138         V                 2.764129          3.953114
 139         V                 2.787335          3.978091
 140         V                 2.821505          3.970509
 141         V                 2.850856          4.065644
 142         V                 2.872734          3.901525
 143         V                 2.919866          4.243245
 144         V                 2.948007          4.330329
 145         V                 2.994781          4.376706
 146         V                 3.040800          4.754016
 147         V                 3.052309          4.559826
 148         V                 3.133223          5.734595
 149         V                 3.243886          4.940195
 150         V                 3.291999          4.952305
 151         V                 3.326677          5.032215
 152         V                 3.369736          5.009215
 153         V                 3.420825          5.207068
 154         V                 3.456736          5.063948
 155         V                 3.501775          5.164353
 156         V                 3.540054          5.171682
 157         V                 3.564610          5.210341
 158         V                 3.960688         10.427446
 159         V                 4.266051         10.072921
 160         V                 4.418341         10.605164
 161         V                 4.462207         10.402294
 162         V                 4.613512         10.263714
 163         V                 4.701462         10.801705
 164         V                 4.847028         11.031280
 165         V                 4.919574         11.982677
 Total kinetic energy from orbitals= 4.054719350515D+02
 1\1\GINC-NEUMANN2\SP\RPBE1PBE TD-FC\6-31G(d,p)\C6H9F1O1\ANV\20-Nov-202
 3\0\\#N PBE1PBE 6-31G** td=(nstates=25) gfinput pop=full\\2fluorocyclo
 hexanone/2fluorocyclohexanone_4.dat\\0,1\C,0,0.,0.,0.\C,0,1.522,0.,0.\
 C,0,2.1072,1.4137,0.\C,0,1.1899,2.4556,0.6444\C,0,0.3351,1.8667,1.7574
 \C,0,-0.5148,0.7196,1.23\O,0,-1.5704,0.3772,1.7759\F,0,1.1557,1.4524,2
 .7705\H,0,-0.3693,-1.0307,0.0153\H,0,-0.3951,0.5005,-0.89\H,0,1.9026,-
 0.5569,-0.8636\H,0,1.8792,-0.5277,0.894\H,0,3.0722,1.3947,0.5211\H,0,2
 .323,1.7254,-1.0291\H,0,1.8012,3.2781,1.0323\H,0,0.5351,2.8772,-0.1288
 \H,0,-0.3301,2.6367,2.1611\\Version=EM64L-G09RevC.01\State=1-A\HF=-408
 .6676511\RMSD=3.864e-09\PG=C01 [X(C6H9F1O1)]\\@


 ALL PAPERS THAT YOU SAVE WILL NEVER BE NEEDED UNTIL
 SUCH TIME AS THEY ARE DISPOSED OF, WHEN THEY BECOME
 ESSENTIAL.

           -- JOHN CORCORAN IN
              PAUL DICKSON'S "THE OFFICIAL RULES"
 Job cpu time:  0 days  0 hours 16 minutes  0.2 seconds.
 File lengths (MBytes):  RWF=    161 Int=      0 D2E=      0 Chk=     25 Scr=      1
 Normal termination of Gaussian 09 at Mon Nov 20 22:48:27 2023.
