
                                 *****************
                                 * O   R   C   A *
                                 *****************

                                            #,                                       
                                            ###                                      
                                            ####                                     
                                            #####                                    
                                            ######                                   
                                           ########,                                 
                                     ,,################,,,,,                         
                               ,,#################################,,                 
                          ,,##########################################,,             
                       ,#########################################, ''#####,          
                    ,#############################################,,   '####,        
                  ,##################################################,,,,####,       
                ,###########''''           ''''###############################       
              ,#####''   ,,,,##########,,,,          '''####'''          '####       
            ,##' ,,,,###########################,,,                        '##       
           ' ,,###''''                  '''############,,,                           
         ,,##''                                '''############,,,,        ,,,,,,###''
      ,#''                                            '''#######################'''  
     '                                                          ''''####''''         
             ,#######,   #######,   ,#######,      ##                                
            ,#'     '#,  ##    ##  ,#'     '#,    #''#        ,####,   ,####,        
            ##       ##  ##   ,#'  ##            #'  '#       #'       #'  '#        
            ##       ##  #######   ##           ,######,      #####,   #    #        
            '#,     ,#'  ##    ##  '#,     ,#' ,#      #,     #,   #   #,  ,#        
             '#######'   ##     ##  '#######'  #'      '#     '####' # '####'        



                #########################################################
                #                        -***-                          #
                #          Department of theory and spectroscopy        #
                #                                                       #
                #                      Frank Neese                      #
                #                                                       #
                #     Directorship, Architecture, Infrastructure        #
                #                    SHARK, DRIVERS                     #
                #        Core code/Algorithms in most modules           #
                #                                                       #
                #        Max Planck Institute fuer Kohlenforschung      #
                #                Kaiser Wilhelm Platz 1                 #
                #                 D-45470 Muelheim/Ruhr                 #
                #                      Germany                          #
                #                                                       #
                #                  All rights reserved                  #
                #                        -***-                          #
                #########################################################


                         Program Version 6.0.0  -   RELEASE  -


 With contributions from (in alphabetic order):
   Daniel Aravena         : Magnetic Suceptibility
   Michael Atanasov       : Ab Initio Ligand Field Theory (pilot matlab implementation)
   Alexander A. Auer      : GIAO ZORA, VPT2 properties, NMR spectrum
   Ute Becker             : All parallelization in ORCA, NUMFREQ, NUMCALC
   Giovanni Bistoni       : ED, misc. LED, open-shell LED, HFLD
   Martin Brehm           : Molecular dynamics
   Dmytro Bykov           : pre 5.0 version of the SCF Hessian
   Marcos Casanova-Páez   : Triplet and SCS-CIS(D). UHF-(DLPNO)-IP/EA/STEOM-CCSD. UHF-CVS-IP/STEOM-CCSD
   Vijay G. Chilkuri      : MRCI spin determinant printing, contributions to CSF-ICE
   Pauline Colinet        : FMM embedding
   Dipayan Datta          : RHF DLPNO-CCSD density
   Achintya Kumar Dutta   : EOM-CC, STEOM-CC
   Nicolas Foglia         : Exact transition moments, OPA infrastructure, MCD improvements
   Dmitry Ganyushin       : Spin-Orbit,Spin-Spin,Magnetic field MRCI
   Miquel Garcia          : C-PCM and meta-GGA Hessian, CCSD/C-PCM, Gaussian charge scheme
   Tiago L. C. Gouveia    : GS-ROHF, GS-ROCIS
   Yang Guo               : DLPNO-NEVPT2, F12-NEVPT2, CIM, IAO-localization
   Andreas Hansen         : Spin unrestricted coupled pair/coupled cluster methods
   Ingolf Harden          : AUTO-CI MPn and infrastructure 
   Benjamin Helmich-Paris : MC-RPA, TRAH-(SCF,CASSCF), AVAS, COSX integrals, SCF dyn. polar.
   Lee Huntington         : MR-EOM, pCC
   Robert Izsak           : Overlap fitted RIJCOSX, COSX-SCS-MP3, EOM
   Riya Kayal             : Wick's Theorem for AUTO-CI, AUTO-CI UHF-CCSDT
   Emily Kempfer          : AUTO-CI, RHF CISDT and CCSDT
   Christian Kollmar      : KDIIS, OOCD, Brueckner-CCSD(T), CCSD density, CASPT2, CASPT2-K, improved NEVPT2
   Axel Koslowski         : Symmetry handling
   Simone Kossmann        : Meta GGA functionals, TD-DFT gradient, OOMP2, (MP2 Hessian; deprecated post 5.0)
   Lucas Lang             : DCDCAS
   Marvin Lechner         : AUTO-CI (C++ implementation), FIC-MRCC
   Spencer Leger          : CASSCF response
   Dagmar Lenk            : GEPOL surface, SMD, ORCA-2-JSON
   Dimitrios Liakos       : Extrapolation schemes; Compound Job, initial MDCI parallelization
   Dimitrios Manganas     : Further ROCIS development; embedding schemes. LFT, Crystal Embedding
   Dimitrios Pantazis     : SARC Basis sets
   Anastasios Papadopoulos: AUTO-CI, single reference methods and gradients
   Taras Petrenko         : pre 6.0 DFT Hessian and TD-DFT gradient, (ASA, deprecated), ECA, 1-Electron XAS/XES, NRVS
   Peter Pinski           : DLPNO-MP2, DLPNO-MP2 Gradient
   Christoph Reimann      : Effective Core Potentials
   Marius Retegan         : Local ZFS, SOC
   Christoph Riplinger    : Optimizer, TS searches, QM/MM, DLPNO-CCSD(T), (RO)-DLPNO pert. Triples
   Michael Roemelt        : Original ROCIS implementation
   Masaaki Saitow         : Open-shell DLPNO-CCSD energy and density
   Barbara Sandhoefer     : DKH picture change effects
   Kantharuban Sivalingam : CASSCF convergence/infrastructure, NEVPT2 and variants, FIC-MRCI
   Bernardo de Souza      : ESD, SOC TD-DFT
   Georgi Stoychev        : AutoAux, RI-MP2 NMR, DLPNO-MP2 response, X2C
   Van Anh Tran           : RI-MP2 g-tensors
   Willem Van den Heuvel  : Paramagnetic NMR
   Zikuan Wang            : NOTCH, Electric field optimization 
   Frank Wennmohs         : Technical directorship and infrastructure
   Hang Xu                : AUTO-CI-Response properties 


 We gratefully acknowledge several colleagues who have allowed us to
 interface, adapt or use parts of their codes:
   Stefan Grimme, W. Hujo, H. Kruse, P. Pracht,  : VdW corrections, initial TS optimization,
                  C. Bannwarth, S. Ehlert,         DFT functionals, gCP, sTDA/sTD-DF
                  L. Wittmann, M. Mueller
   Ed Valeev, F. Pavosevic, A. Kumar             : LibInt (2-el integral package), F12 methods
   Garnet Chan, S. Sharma, J. Yang, R. Olivares  : DMRG
   Ulf Ekstrom                                   : XCFun DFT Library
   Mihaly Kallay                                 : mrcc  (arbitrary order and MRCC methods)
   Frank Weinhold                                : gennbo (NPA and NBO analysis)
   Simon Mueller                                 : openCOSMO-RS
   Christopher J. Cramer and Donald G. Truhlar   : smd solvation model
   Lars Goerigk                                  : TD-DFT with DH, B97 family of functionals
   V. Asgeirsson, H. Jonsson                     : NEB implementation
   FAccTs GmbH                                   : IRC, NEB, NEB-TS, DLPNO-Multilevel, CI-OPT
                                                   MM, QMMM, 2- and 3-layer-ONIOM, Crystal-QMMM,
                                                   LR-CPCM, SF, NACMEs, symmetry and pop. for TD-DFT,
                                                   nearIR, NL-DFT gradient (VV10), updates on ESD,
                                                   ML-optimized integration grids, MBIS, APM,
                                                   GOAT, DOCKER, SOLVATOR, interface openCOSMO-RS
   S Lehtola, MJT Oliveira, MAL Marques          : LibXC Library
   Liviu Ungur et al                             : ANISO software


 Your calculation uses the libint2 library for the computation of 2-el integrals
 For citations please refer to: http://libint.valeyev.net

 Your ORCA version has been built with support for libXC version: 6.2.2
 For citations please refer to: https://libxc.gitlab.io

 This ORCA versions uses:
   CBLAS   interface :  Fast vector & matrix operations
   LAPACKE interface :  Fast linear algebra routines
   SCALAPACK package :  Parallel linear algebra routines
   Shared memory     :  Shared parallel matrices
   BLAS/LAPACK       :  OpenBLAS 0.3.27  USE64BITINT DYNAMIC_ARCH NO_AFFINITY Haswell SINGLE_THREADED
        Core in use  :  Haswell
   Copyright (c) 2011-2014, The OpenBLAS Project


Warning: RI is on but no J-basis has been assigned. Assigning Def2/J (nothing to worry about!)
================================================================================

----- Orbital basis set information -----
Your calculation utilizes the basis: 6-31G**
   H-He, Li-Ne : W. J. Hehre, R. Ditchfield and J.A. Pople, J. Chem. Phys. 56, 2257 (1972).
                 Note: He and Ne are unpublished basis sets taken from the Gaussian program.
                 Note: Li and B from J. D. Dill and J. A. Pople, J. Chem. Phys. 62, 2921 (1975).
   Na - Ar     : M. M. Francl, W. J. Pietro, W. J. Hehre, J. S. Binkley, M. S. Gordon, 
                 D. J. DeFrees and J. A. Pople, J. Chem. Phys. 77, 3654 (1982).
   K - Zn      : V. A. Rassolov, J. A. Pople, M. A. Ratner, and T. L. Windus, J. Chem. Phys. 109, 1223 (1998).

----- AuxJ basis set information -----
Your calculation utilizes the auxiliary basis: def2/J
   F. Weigend, Phys. Chem. Chem. Phys. 8, 1057 (2006).

================================================================================
                                        WARNINGS
                       Please study these warnings very carefully!
================================================================================

INFO   : Checking CIS options ...

INFO   : Since TDDFT/CIS Mode == RPA_AOINTS, the TAMMDANCOFF/TDA keyword is ignored. 


WARNING: CIS/ROCIS methods need fully converged wavefunctions
  ===> : Setting SCFConvForced true
         You can overwrite this default with %scf ConvForced false 


================================================================================
                                       INPUT FILE
================================================================================
NAME = 2fluorocyclohexanone_1.inp
|  1> !PAL8
|  2> !PBE0 6-31G** printbasis printmos
|  3> %tddft
|  4> tda false
|  5> nroots=25
|  6> end
|  7> *xyz 0 1
|  8> C       0.854300    1.378000    0.331800
|  9> C       1.879000    0.447900   -0.304600
| 10> C       1.657700   -1.006600    0.105400
| 11> C       0.245400   -1.463700   -0.247200
| 12> C      -0.813400   -0.577100    0.392000
| 13> C      -0.552200    0.885000    0.064300
| 14> O      -1.442500    1.655900   -0.310700
| 15> F      -2.040500   -0.991900   -0.054100
| 16> H       0.965300    2.388100   -0.076200
| 17> H       0.995600    1.431300    1.416700
| 18> H       2.889000    0.762500   -0.019200
| 19> H       1.814200    0.526000   -1.397200
| 20> H       2.388500   -1.646300   -0.402100
| 21> H       1.825300   -1.117200    1.183500
| 22> H       0.116400   -1.458300   -1.337000
| 23> H       0.095600   -2.501300    0.072300
| 24> H      -0.810500   -0.685800    1.481600
| 25> *
| 26> 
| 27>                          ****END OF INPUT****
================================================================================

                       ****************************
                       * Single Point Calculation *
                       ****************************

---------------------------------
CARTESIAN COORDINATES (ANGSTROEM)
---------------------------------
  C      0.854300    1.378000    0.331800
  C      1.879000    0.447900   -0.304600
  C      1.657700   -1.006600    0.105400
  C      0.245400   -1.463700   -0.247200
  C     -0.813400   -0.577100    0.392000
  C     -0.552200    0.885000    0.064300
  O     -1.442500    1.655900   -0.310700
  F     -2.040500   -0.991900   -0.054100
  H      0.965300    2.388100   -0.076200
  H      0.995600    1.431300    1.416700
  H      2.889000    0.762500   -0.019200
  H      1.814200    0.526000   -1.397200
  H      2.388500   -1.646300   -0.402100
  H      1.825300   -1.117200    1.183500
  H      0.116400   -1.458300   -1.337000
  H      0.095600   -2.501300    0.072300
  H     -0.810500   -0.685800    1.481600

----------------------------
CARTESIAN COORDINATES (A.U.)
----------------------------
  NO LB      ZA    FRAG     MASS         X           Y           Z
   0 C     6.0000    0    12.011    1.614393    2.604043    0.627011
   1 C     6.0000    0    12.011    3.550795    0.846408   -0.575611
   2 C     6.0000    0    12.011    3.132599   -1.902198    0.199177
   3 C     6.0000    0    12.011    0.463739   -2.765992   -0.467140
   4 C     6.0000    0    12.011   -1.537103   -1.090561    0.740773
   5 C     6.0000    0    12.011   -1.043507    1.672408    0.121509
   6 O     8.0000    0    15.999   -2.725930    3.129198   -0.587138
   7 F     9.0000    0    18.998   -3.855986   -1.874419   -0.102234
   8 H     1.0000    0     1.008    1.824153    4.512855   -0.143997
   9 H     1.0000    0     1.008    1.881411    2.704765    2.677175
  10 H     1.0000    0     1.008    5.459419    1.440916   -0.036283
  11 H     1.0000    0     1.008    3.428341    0.993996   -2.640325
  12 H     1.0000    0     1.008    4.513611   -3.111056   -0.759859
  13 H     1.0000    0     1.008    3.449317   -2.111202    2.236491
  14 H     1.0000    0     1.008    0.219964   -2.755788   -2.526564
  15 H     1.0000    0     1.008    0.180658   -4.726772    0.136627
  16 H     1.0000    0     1.008   -1.531623   -1.295974    2.799818

--------------------------------
INTERNAL COORDINATES (ANGSTROEM)
--------------------------------
 C      0   0   0     0.000000000000     0.00000000     0.00000000
 C      1   0   0     1.523187795382     0.00000000     0.00000000
 C      2   1   0     1.527299558044   111.83192902     0.00000000
 C      3   2   1     1.525732106236   110.94051722    56.68826508
 C      4   3   2     1.521740332645   111.86556986   303.18207013
 C      1   2   3     1.514215143234   110.62560396   307.44590567
 O      6   1   2     1.235939278444   121.30706509   225.98122614
 F      5   4   3     1.369977612956   108.06131535   175.50213643
 H      1   2   3     1.095028314702   109.84048338   186.83922075
 H      1   2   3     1.095360484042   110.90068858    67.38126342
 H      2   1   3     1.095685319788   109.63142655   238.10016383
 H      2   1   3     1.097302788660   109.44055537   120.95841453
 H      3   2   1     1.095828900878   109.57133337   177.83151954
 H      3   2   1     1.096641112671   109.74354071   295.19750658
 H      4   3   2     1.097421614513   109.68397860    64.78558870
 H      4   3   2     1.095962613413   110.04691445   181.20485929
 H      5   4   3     1.095012447418   110.99525066   292.82495784

---------------------------
INTERNAL COORDINATES (A.U.)
---------------------------
 C      0   0   0     0.000000000000     0.00000000     0.00000000
 C      1   0   0     2.878407783803     0.00000000     0.00000000
 C      2   1   0     2.886177889161   111.83192902     0.00000000
 C      3   2   1     2.883215834517   110.94051722    56.68826508
 C      4   3   2     2.875672475642   111.86556986   303.18207013
 C      1   2   3     2.861451928549   110.62560396   307.44590567
 O      6   1   2     2.335586754415   121.30706509   225.98122614
 F      5   4   3     2.588882498090   108.06131535   175.50213643
 H      1   2   3     2.069303623677   109.84048338   186.83922075
 H      1   2   3     2.069931332758   110.90068858    67.38126342
 H      2   1   3     2.070545183358   109.63142655   238.10016383
 H      2   1   3     2.073601756555   109.44055537   120.95841453
 H      3   2   1     2.070816512296   109.57133337   177.83151954
 H      3   2   1     2.072351370147   109.74354071   295.19750658
 H      4   3   2     2.073826304875   109.68397860    64.78558870
 H      4   3   2     2.071069192368   110.04691445   181.20485929
 H      5   4   3     2.069273638855   110.99525066   292.82495784

---------------------
BASIS SET INFORMATION
---------------------
There are 4 groups of distinct atoms

 Group   1 Type C   : 10s4p1d contracted to 3s2p1d pattern {631/31/1}
 Group   2 Type O   : 10s4p1d contracted to 3s2p1d pattern {631/31/1}
 Group   3 Type F   : 10s4p1d contracted to 3s2p1d pattern {631/31/1}
 Group   4 Type H   : 4s1p contracted to 2s1p pattern {31/1}

Atom   0C    basis set group =>   1
Atom   1C    basis set group =>   1
Atom   2C    basis set group =>   1
Atom   3C    basis set group =>   1
Atom   4C    basis set group =>   1
Atom   5C    basis set group =>   1
Atom   6O    basis set group =>   2
Atom   7F    basis set group =>   3
Atom   8H    basis set group =>   4
Atom   9H    basis set group =>   4
Atom  10H    basis set group =>   4
Atom  11H    basis set group =>   4
Atom  12H    basis set group =>   4
Atom  13H    basis set group =>   4
Atom  14H    basis set group =>   4
Atom  15H    basis set group =>   4
Atom  16H    basis set group =>   4

-------------------------
BASIS SET IN INPUT FORMAT
-------------------------

 # Basis set for element : H 
 NewGTO H 
 S 3 
   1      18.7311370000      0.0334945995
   2       2.8253937000      0.2347269467
   3       0.6401217000      0.8137573184
 S 1 
   1       0.1612778000      1.0000000000
 P 1 
   1       1.1000000000      1.0000000000
  end;

 # Basis set for element : C 
 NewGTO C 
 S 6 
   1    3047.5249000000      0.0018347002
   2     457.3695100000      0.0140373012
   3     103.9486900000      0.0688426061
   4      29.2101550000      0.2321844206
   5       9.2866630000      0.4679413416
   6       3.1639270000      0.3623120322
 S 3 
   1       7.8682724000     -0.1193324086
   2       1.8812885000     -0.1608542116
   3       0.5442493000      1.1434564826
 P 3 
   1       7.8682724000      0.0689990956
   2       1.8812885000      0.3164239798
   3       0.5442493000      0.7443082524
 S 1 
   1       0.1687144000      1.0000000000
 P 1 
   1       0.1687144000      1.0000000000
 D 1 
   1       0.8000000000      1.0000000000
  end;

 # Basis set for element : O 
 NewGTO O 
 S 6 
   1    5484.6717000000      0.0018310998
   2     825.2349500000      0.0139500985
   3     188.0469600000      0.0684450927
   4      52.9645000000      0.2327142753
   5      16.8975700000      0.4701929501
   6       5.7996353000      0.3585208619
 S 3 
   1      15.5396160000     -0.1107775038
   2       3.5999336000     -0.1480263051
   3       1.0137618000      1.1307670390
 P 3 
   1      15.5396160000      0.0708742995
   2       3.5999336000      0.3397527978
   3       1.0137618000      0.7271585953
 S 1 
   1       0.2700058000      1.0000000000
 P 1 
   1       0.2700058000      1.0000000000
 D 1 
   1       0.8000000000      1.0000000000
  end;

 # Basis set for element : F 
 NewGTO F 
 S 6 
   1    7001.7130900000      0.0018196200
   2    1051.3660900000      0.0139160800
   3     239.2856900000      0.0684053199
   4      67.3974453000      0.2331857596
   5      21.5199573000      0.4712674391
   6       7.4031013000      0.3566185493
 S 3 
   1      20.8479528000     -0.1085069803
   2       4.8083083400     -0.1464516604
   3       1.3440698600      1.1286885835
 P 3 
   1      20.8479528000      0.0716287200
   2       4.8083083400      0.3459121001
   3       1.3440698600      0.7224699603
 S 1 
   1       0.3581513900      1.0000000000
 P 1 
   1       0.3581513900      1.0000000000
 D 1 
   1       0.8000000000      1.0000000000
  end;

---------------------------------
AUXILIARY/J BASIS SET INFORMATION
---------------------------------
There are 4 groups of distinct atoms

 Group   1 Type C   : 12s5p4d2f1g contracted to 6s4p3d1f1g pattern {711111/2111/211/2/1}
 Group   2 Type O   : 12s5p4d2f1g contracted to 6s4p3d1f1g pattern {711111/2111/211/2/1}
 Group   3 Type F   : 12s5p4d2f1g contracted to 6s4p3d1f1g pattern {711111/2111/211/2/1}
 Group   4 Type H   : 5s2p1d contracted to 3s1p1d pattern {311/2/1}

Atom   0C    basis set group =>   1
Atom   1C    basis set group =>   1
Atom   2C    basis set group =>   1
Atom   3C    basis set group =>   1
Atom   4C    basis set group =>   1
Atom   5C    basis set group =>   1
Atom   6O    basis set group =>   2
Atom   7F    basis set group =>   3
Atom   8H    basis set group =>   4
Atom   9H    basis set group =>   4
Atom  10H    basis set group =>   4
Atom  11H    basis set group =>   4
Atom  12H    basis set group =>   4
Atom  13H    basis set group =>   4
Atom  14H    basis set group =>   4
Atom  15H    basis set group =>   4
Atom  16H    basis set group =>   4

-------------------------------------
AUXILIARY/J BASIS SET IN INPUT FORMAT
-------------------------------------

 # Auxiliary/J basis set for element : H 
 NewAuxJGTO H 
 S 3 
   1      15.6752927000      0.1007184237
   2       3.6063578000      0.3404257499
   3       1.2080016000      0.6491996172
 S 1 
   1       0.4726794000      1.0000000000
 S 1 
   1       0.2018100000      1.0000000000
 P 2 
   1       2.0281365000      0.5596620919
   2       0.5358730000      0.5596620919
 D 1 
   1       2.2165124000      1.0000000000
  end;

 # Auxiliary/J basis set for element : C 
 NewAuxJGTO C 
 S 7 
   1    1861.0916331000      0.0134602335
   2     642.9939764000      0.0299160374
   3     235.1105725000      0.1008649584
   4      90.7028894000      0.2370970548
   5      36.7794552000      0.3924037254
   6      15.6046273000      0.3195862154
   7       6.8907294000      0.0530104441
 S 1 
   1       3.1478850000     -1.0000000000
 S 1 
   1       1.4777287000      1.0000000000
 S 1 
   1       0.7076466000      1.0000000000
 S 1 
   1       0.3430122000      1.0000000000
 S 1 
   1       0.1669453000      1.0000000000
 P 2 
   1      13.5472892000     -0.6769313712
   2       5.4669419000     -0.3779500978
 P 1 
   1       2.1751721000      1.0000000000
 P 1 
   1       0.8582194000      1.0000000000
 P 1 
   1       0.3376720000      1.0000000000
 D 2 
   1       5.9287253000     -0.3533329857
   2       1.9809209000     -0.7456525731
 D 1 
   1       0.8055417000     -1.0000000000
 D 1 
   1       0.3531244000     -1.0000000000
 F 2 
   1       1.6755626000      0.6311076882
   2       0.5997536000      0.4968166032
 G 1 
   1       1.0024600000     -1.0000000000
  end;

 # Auxiliary/J basis set for element : O 
 NewAuxJGTO O 
 S 7 
   1    2876.8216605000      0.0168151159
   2    1004.7443032000      0.0340137548
   3     369.7579954000      0.1194951309
   4     142.9442404000      0.2664627624
   5      57.8366425000      0.4202764046
   6      24.3864983000      0.2765077335
   7      10.6622662000      0.0057008815
 S 1 
   1       4.8070437000     -1.0000000000
 S 1 
   1       2.2210770000      1.0000000000
 S 1 
   1       1.0447795000      1.0000000000
 S 1 
   1       0.4968425000      1.0000000000
 S 1 
   1       0.2371384000      1.0000000000
 P 2 
   1      64.2613382000     -0.2731534179
   2      16.3006076000     -0.8168011598
 P 1 
   1       4.3550542000      1.0000000000
 P 1 
   1       1.2019554000      1.0000000000
 P 1 
   1       0.3354196000      1.0000000000
 D 2 
   1       9.2146611000     -0.4661230638
   2       2.8435251000     -0.6600908911
 D 1 
   1       0.9955759000     -1.0000000000
 D 1 
   1       0.3649441000     -1.0000000000
 F 2 
   1       2.6420115000      0.5931563945
   2       0.7345613000      0.5931563945
 G 1 
   1       1.3931000000     -1.0000000000
  end;

 # Auxiliary/J basis set for element : F 
 NewAuxJGTO F 
 S 7 
   1    3514.9201549000      0.0176189594
   2    1231.2458815000      0.0358663858
   3     454.1367336000      0.1239867649
   4     175.8376258000      0.2758620517
   5      71.2081775000      0.4252764982
   6      30.0316883000      0.2651963387
   7      13.1259023000     -0.0078514564
 S 1 
   1       5.9126861000     -1.0000000000
 S 1 
   1       2.7284431000      1.0000000000
 S 1 
   1       1.2813993000      1.0000000000
 S 1 
   1       0.6082793000      1.0000000000
 S 1 
   1       0.2897894000      1.0000000000
 P 2 
   1      49.3740409000     -0.8404235528
   2      13.4874956000     -0.2331250081
 P 1 
   1       3.9664900000      1.0000000000
 P 1 
   1       1.2226629000     -1.0000000000
 P 1 
   1       0.3830317000      1.0000000000
 D 2 
   1      29.9719140000     -0.2160273306
   2       6.7860915000     -0.8915140390
 D 1 
   1       1.8137313000     -1.0000000000
 D 1 
   1       0.5157840000     -1.0000000000
 F 2 
   1       2.8301877000      0.5762078303
   2       0.9155962000      0.5762078303
 G 1 
   1       1.6097500000     -1.0000000000
  end;



           ************************************************************
           *        Program running with 8 parallel MPI-processes     *
           *              working on a common directory               *
           ************************************************************
------------------------------------------------------------------------------
                             ORCA STARTUP CALCULATIONS
                           -- RI-GTO INTEGRALS CHOSEN --
------------------------------------------------------------------------------
------------------------------------------------------------------------------
                   ___                                                        
                  /   \      - P O W E R E D   B Y -                         
                 /     \                                                     
                 |  |  |   _    _      __       _____    __    __             
                 |  |  |  | |  | |    /  \     |  _  \  |  |  /  |          
                  \  \/   | |  | |   /    \    | | | |  |  | /  /          
                 / \  \   | |__| |  /  /\  \   | |_| |  |  |/  /          
                |  |  |   |  __  | /  /__\  \  |    /   |      \           
                |  |  |   | |  | | |   __   |  |    \   |  |\   \          
                \     /   | |  | | |  |  |  |  | |\  \  |  | \   \       
                 \___/    |_|  |_| |__|  |__|  |_| \__\ |__|  \__/        
                                                                              
                      - O R C A' S   B I G   F R I E N D -                    
                                      &                                       
                       - I N T E G R A L  F E E D E R -                       
                                                                              
 v1 FN, 2020, v2 2021, v3 2022-2024                                           
------------------------------------------------------------------------------


----------------------
SHARK INTEGRAL PACKAGE
----------------------

Number of atoms                             ...     17
Number of basis functions                   ...    157
Number of shells                            ...     75
Maximum angular momentum                    ...      2
Integral batch strategy                     ... SHARK/LIBINT Hybrid
RI-J (if used) integral strategy            ... SPLIT-RIJ (Revised 2003 algorithm where possible)
Printlevel                                  ...      1
Contraction scheme used                     ... SEGMENTED contraction
Prescreening option                         ... SCHWARTZ
   Thresh                                   ... 1.000e-10
   Tcut                                     ... 1.000e-11
   Tpresel                                  ... 1.000e-11 
Coulomb Range Separation                    ... NOT USED
Exchange Range Separation                   ... NOT USED
Multipole approximations                    ... NOT USED
Finite Nucleus Model                        ... NOT USED
CABS basis                                  ... NOT available
Auxiliary Coulomb fitting basis             ... AVAILABLE
   # of basis functions in Aux-J            ...    491
   # of shells in Aux-J                     ...    165
   Maximum angular momentum in Aux-J        ...      4
Auxiliary J/K fitting basis                 ... NOT available
Auxiliary Correlation fitting basis         ... NOT available
Auxiliary 'external' fitting basis          ... NOT available

Checking pre-screening integrals            ... done (  0.0 sec) Dimension = 75
Check shell pair data                       ... done (  0.0 sec)
Shell pair information
Shell pair cut-off parameter TPreSel        ...   1.0e-11
Total number of shell pairs                 ...      2850
Shell pairs after pre-screening             ...      2686
Total number of primitive shell pairs       ...     13890
Primitive shell pairs kept                  ...      9012
          la=0 lb=0:    845 shell pairs
          la=1 lb=0:    987 shell pairs
          la=1 lb=1:    306 shell pairs
          la=2 lb=0:    321 shell pairs
          la=2 lb=1:    191 shell pairs
          la=2 lb=2:     36 shell pairs

Calculating one electron integrals          ... done (  0.0 sec)
Calculating RI/J V-Matrix + Cholesky decomp.... done (  0.0 sec)
Calculating Nuclear repulsion               ... done (  0.0 sec) ENN=    391.797074361003 Eh

Diagonalization of the overlap matrix:
Smallest eigenvalue                        ... 3.013e-03
Time for diagonalization                   ...    0.001 sec
Threshold for overlap eigenvalues          ... 1.000e-07
Number of eigenvalues below threshold      ... 0
Time for construction of square roots      ...    0.000 sec
Total time needed                          ...    0.002 sec

-------------------
DFT GRID GENERATION
-------------------

General Integration Accuracy     IntAcc      ... 4.388
Radial Grid Type                 RadialGrid  ... OptM3 with GC (2021)
Angular Grid (max. ang.)         AngularGrid ... 4 (Lebedev-302)
Angular grid pruning method      GridPruning ... 4 (adaptive)
Weight generation scheme         WeightScheme... mBecke (2022)
Basis function cutoff            BFCut       ... 1.0000e-10
Integration weight cutoff        WCut        ... 1.0000e-14
Partially contracted basis set               ... off
Rotationally invariant grid construction     ... off
Angular grids for H and He will be reduced by one unit

Total number of grid points                  ...    76830
Total number of batches                      ...     1209
Average number of points per batch           ...       63
Average number of grid points per atom       ...     4519

--------------------
COSX GRID GENERATION
--------------------

GRIDX 1
-------
General Integration Accuracy     IntAcc      ... 3.816
Radial Grid Type                 RadialGrid  ... OptM3 with GC (2021)
Angular Grid (max. ang.)         AngularGrid ... 1 (Lebedev-50)
Angular grid pruning method      GridPruning ... 4 (adaptive)
Weight generation scheme         WeightScheme... mBecke (2022)
Basis function cutoff            BFCut       ... 1.0000e-10
Integration weight cutoff        WCut        ... 1.0000e-14
Partially contracted basis set               ... on
Rotationally invariant grid construction     ... off
Angular grids for H and He will be reduced by one unit

Total number of grid points                  ...     9791
Total number of batches                      ...       89
Average number of points per batch           ...      110
Average number of grid points per atom       ...      576
UseSFitting                                  ... on

GRIDX 2
-------
General Integration Accuracy     IntAcc      ... 4.020
Radial Grid Type                 RadialGrid  ... OptM3 with GC (2021)
Angular Grid (max. ang.)         AngularGrid ... 2 (Lebedev-110)
Angular grid pruning method      GridPruning ... 4 (adaptive)
Weight generation scheme         WeightScheme... mBecke (2022)
Basis function cutoff            BFCut       ... 1.0000e-10
Integration weight cutoff        WCut        ... 1.0000e-14
Partially contracted basis set               ... on
Rotationally invariant grid construction     ... off
Angular grids for H and He will be reduced by one unit

Total number of grid points                  ...    21096
Total number of batches                      ...      175
Average number of points per batch           ...      120
Average number of grid points per atom       ...     1241
UseSFitting                                  ... on

GRIDX 3
-------
General Integration Accuracy     IntAcc      ... 4.338
Radial Grid Type                 RadialGrid  ... OptM3 with GC (2021)
Angular Grid (max. ang.)         AngularGrid ... 3 (Lebedev-194)
Angular grid pruning method      GridPruning ... 4 (adaptive)
Weight generation scheme         WeightScheme... mBecke (2022)
Basis function cutoff            BFCut       ... 1.0000e-10
Integration weight cutoff        WCut        ... 1.0000e-14
Partially contracted basis set               ... on
Rotationally invariant grid construction     ... off
Angular grids for H and He will be reduced by one unit

Total number of grid points                  ...    46292
Total number of batches                      ...      371
Average number of points per batch           ...      124
Average number of grid points per atom       ...     2723
UseSFitting                                  ... on
Initializing property integral containers    ... done (  0.0 sec)

SHARK setup successfully completed in   0.4 seconds

Maximum memory used throughout the entire STARTUP-calculation: 21.7 MB


           ************************************************************
           *        Program running with 8 parallel MPI-processes     *
           *              working on a common directory               *
           ************************************************************
-------------------------------------------------------------------------------
                                 ORCA GUESS
                   Start orbitals & Density for SCF / CASSCF
-------------------------------------------------------------------------------

------------
SCF SETTINGS
------------
Hamiltonian:
 Density Functional     Method          .... DFT(GTOs)
 Exchange Functional    Exchange        .... PBE
   PBE kappa parameter   XKappa         ....  0.804000
   PBE mue parameter    XMuePBE         ....  0.219520
 Correlation Functional Correlation     .... PBE
   PBE beta parameter  CBetaPBE         ....  0.066725
 LDA part of GGA corr.  LDAOpt          .... PW91-LDA
 Gradients option       PostSCFGGA      .... off
 Hybrid DFT is turned on
   Fraction HF Exchange ScalHFX         ....  0.250000
   Scaling of DF-GGA-X  ScalDFX         ....  0.750000
   Scaling of DF-GGA-C  ScalDFC         ....  1.000000
   Scaling of DF-LDA-C  ScalLDAC        ....  1.000000
   Perturbative correction              ....  0.000000
   NL short-range parameter             ....  6.900000
 RI-approximation to the Coulomb term is turned on
   Number of AuxJ basis functions       .... 491
   RIJ-COSX (HFX calculated with COS-X)).... on


General Settings:
 Integral files         IntName         .... 2fluorocyclohexanone_1
 Hartree-Fock type      HFTyp           .... RHF
 Total Charge           Charge          ....    0
 Multiplicity           Mult            ....    1
 Number of Electrons    NEL             ....   62
 Basis Dimension        Dim             ....  157
 Nuclear Repulsion      ENuc            ....    391.7970743610 Eh

Convergence Acceleration:
 AO-DIIS                CNVDIIS         .... on
   Start iteration      DIISMaxIt       ....    12
   Startup error        DIISStart       ....  0.200000
   # of expansion vecs  DIISMaxEq       ....     5
   Bias factor          DIISBfac        ....   1.050
   Max. coefficient     DIISMaxC        ....  10.000
 MO-DIIS                CNVKDIIS        .... off
 Trust-Rad. Augm. Hess. CNVTRAH         .... auto
   Auto Start mean grad. ratio tolernc. ....  1.125000
   Auto Start start iteration           ....    50
   Auto Start num. interpolation iter.  ....    10
   Max. Number of Micro iterations      ....    24
   Max. Number of Macro iterations      .... Maxiter - #DIIS iter
   Number of Davidson start vectors     ....     2
   Converg. threshold    (grad. norm)   ....   5.000e-05
   Grad. Scal. Fac. for Micro threshold ....   0.100
   Minimum threshold for Micro iter.    ....   1.000e-02
   NR start threshold (gradient norm)   ....   1.000e-04
   Initial trust radius                 ....   0.400
   Minimum AH scaling param. (alpha)    ....   1.000
   Maximum AH scaling param. (alpha)    .... 1000.000
   Quad. conv. algorithm                .... NR
   White noise on init. David. guess    .... on
   Maximum white noise                  ....   0.010
   Pseudo random numbers                .... off
   Inactive MOs                         .... canonical
   Orbital update algorithm             .... Taylor
   Preconditioner                       .... Diag
   Full preconditioner red. dimension   ....   250
 SOSCF                  CNVSOSCF        .... on
   Start iteration      SOSCFMaxIt      ....   150
   Startup grad/error   SOSCFStart      ....  0.003300
   Hessian update       SOSCFHessUp     .... L-BFGS
 Level Shifting         CNVShift        .... on
   Level shift para.    LevelShift      ....    0.2500
   Turn off err/grad.   ShiftErr        ....    0.0010
 Zerner damping         CNVZerner       .... off
 Static damping         CNVDamp         .... on
   Fraction old density DampFac         ....    0.7000
   Max. Damping (<1)    DampMax         ....    0.9800
   Min. Damping (>=0)   DampMin         ....    0.0000
   Turn off err/grad.   DampErr         ....    0.1000

SCF Procedure:
 Maximum # iterations   MaxIter         ....   125
 SCF integral mode      SCFMode         .... Direct
   Integral package                     .... SHARK and LIBINT hybrid scheme
 Reset frequency        DirectResetFreq ....    20
 Integral Threshold     Thresh          ....  1.000e-10 Eh
 Primitive CutOff       TCut            ....  1.000e-11 Eh

Convergence Tolerance:
 Convergence Check Mode ConvCheckMode   .... Total+1el-Energy
 Convergence forced     ConvForced      .... 1
 Energy Change          TolE            ....  1.000e-06 Eh
 1-El. energy change                    ....  1.000e-03 Eh
 Orbital Gradient       TolG            ....  5.000e-05
 Orbital Rotation angle TolX            ....  5.000e-05
 DIIS Error             TolErr          ....  1.000e-06

------------------------------
INITIAL GUESS: MODEL POTENTIAL
------------------------------
Loading Hartree-Fock densities                     ... done
Calculating cut-offs                               ... done
Initializing the effective Hamiltonian             ... done
Setting up the integral package (SHARK)            ... done
Starting the Coulomb interaction                   ... done (   0.0 sec)
Making the grid                                    ... done (   0.0 sec)
Mapping shells                                     ... done
Starting the XC term evaluation                    ... done (   0.0 sec)
  promolecular density results
     # of electrons  =     61.998908098
     EX              =    -51.491817405
     EC              =     -2.077867240
     EX+EC           =    -53.569684645
Transforming the Hamiltonian                       ... done (   0.0 sec)
Diagonalizing the Hamiltonian                      ... done (   0.0 sec)
Back transforming the eigenvectors                 ... done (   0.0 sec)
Now organizing SCF variables                       ... done
                      ------------------
                      INITIAL GUESS DONE (   0.1 sec)
                      ------------------
             **** ENERGY FILE WAS UPDATED (2fluorocyclohexanone_1.en.tmp) ****
Finished Guess after   0.1 sec
Maximum memory used throughout the entire GUESS-calculation: 12.0 MB


           ************************************************************
           *        Program running with 8 parallel MPI-processes     *
           *              working on a common directory               *
           ************************************************************

-------------------------------------------------------------------------------------------
                                      ORCA LEAN-SCF
                              memory conserving SCF solver
-------------------------------------------------------------------------------------------

----------------------------------------D-I-I-S--------------------------------------------
Iteration    Energy (Eh)           Delta-E    RMSDP     MaxDP     DIISErr   Damp  Time(sec)
-------------------------------------------------------------------------------------------
               ***  Starting incremental Fock matrix formation  ***
    1    -408.4748555387037072     0.00e+00  2.94e-03  8.85e-02  2.33e-01  0.700   0.3
    2    -408.5665693656680446    -9.17e-02  2.01e-03  5.31e-02  9.42e-02  0.700   0.1
                               ***Turning on AO-DIIS***
    3    -408.6022828828114939    -3.57e-02  8.60e-04  1.40e-02  3.53e-02  0.700   0.1
    4    -408.6241856067102276    -2.19e-02  1.43e-03  2.36e-02  1.76e-02  0.000   0.1
    5    -408.6722695071226212    -4.81e-02  2.60e-04  4.48e-03  5.18e-03  0.000   0.1
                              *** Initializing SOSCF ***
---------------------------------------S-O-S-C-F--------------------------------------
Iteration    Energy (Eh)           Delta-E    RMSDP     MaxDP     MaxGrad    Time(sec)
--------------------------------------------------------------------------------------
    6    -408.6725024892257920    -2.33e-04  8.25e-05  1.38e-03  1.22e-03     0.1
               *** Restarting incremental Fock matrix formation ***
    7    -408.6725681328300084    -6.56e-05  5.64e-05  1.03e-03  1.99e-04     0.2
    8    -408.6725683041783554    -1.71e-07  2.01e-05  5.94e-04  2.39e-04     0.2
                 **** Energy Check signals convergence ****

               *****************************************************
               *                     SUCCESS                       *
               *           SCF CONVERGED AFTER   8 CYCLES          *
               *****************************************************

Recomputing exchange energy using gridx3       ... done (    0.315 sec)
Old exchange energy                            :    -13.165432631 Eh
New exchange energy                            :    -13.165381824 Eh
Exchange energy change after final integration :      0.000050807 Eh
Total energy after final integration           :   -408.672517497 Eh
             **** ENERGY FILE WAS UPDATED (2fluorocyclohexanone_1.en.tmp) ****

----------------
TOTAL SCF ENERGY
----------------

Total Energy       :       -408.67251749694839 Eh          -11120.54456 eV

Components:
Nuclear Repulsion  :        391.79707436100313 Eh           10661.34041 eV
Electronic Energy  :       -800.46964266518148 Eh          -21781.88635 eV
One Electron Energy:      -1334.82648481418187 Eh          -36322.47525 eV
Two Electron Energy:        534.35684214900039 Eh           14540.58890 eV

Virial components:
Potential Energy   :       -815.04440196861333 Eh          -22178.48571 eV
Kinetic Energy     :        406.37188447166488 Eh           11057.94115 eV
Virial Ratio       :          2.00566139812619

DFT components:
N(Alpha)           :       30.999980453157 electrons
N(Beta)            :       30.999980453157 electrons
N(Total)           :       61.999960906314 electrons
E(X)               :      -39.359158769963 Eh       
E(C)               :       -2.084475799773 Eh       
E(XC)              :      -41.443634569736 Eh       

---------------
SCF CONVERGENCE
---------------

  Last Energy change         ...    1.7135e-07  Tolerance :   1.0000e-06
  Last MAX-Density change    ...    5.9430e-04  Tolerance :   1.0000e-05
  Last RMS-Density change    ...    2.0122e-05  Tolerance :   1.0000e-06
  Last DIIS Error            ...    1.2242e-03  Tolerance :   1.0000e-06
  Last Orbital Gradient      ...    2.3895e-04  Tolerance :   5.0000e-05
  Last Orbital Rotation      ...    1.6980e-04  Tolerance :   5.0000e-05


----------------
ORBITAL ENERGIES
----------------

  NO   OCC          E(Eh)            E(eV) 
   0   2.0000     -24.757188      -673.6773 
   1   2.0000     -19.215076      -522.8688 
   2   2.0000     -10.321534      -280.8632 
   3   2.0000     -10.315249      -280.6922 
   4   2.0000     -10.243557      -278.7414 
   5   2.0000     -10.243282      -278.7339 
   6   2.0000     -10.242334      -278.7081 
   7   2.0000     -10.242239      -278.7055 
   8   2.0000      -1.222687       -33.2710 
   9   2.0000      -1.057086       -28.7648 
  10   2.0000      -0.871077       -23.7032 
  11   2.0000      -0.786660       -21.4061 
  12   2.0000      -0.757392       -20.6097 
  13   2.0000      -0.656248       -17.8574 
  14   2.0000      -0.623308       -16.9611 
  15   2.0000      -0.573557       -15.6073 
  16   2.0000      -0.522565       -14.2197 
  17   2.0000      -0.505108       -13.7447 
  18   2.0000      -0.491675       -13.3792 
  19   2.0000      -0.473850       -12.8941 
  20   2.0000      -0.458906       -12.4875 
  21   2.0000      -0.444942       -12.1075 
  22   2.0000      -0.421803       -11.4778 
  23   2.0000      -0.402010       -10.9393 
  24   2.0000      -0.393714       -10.7135 
  25   2.0000      -0.371095       -10.0980 
  26   2.0000      -0.365006        -9.9323 
  27   2.0000      -0.356711        -9.7066 
  28   2.0000      -0.344459        -9.3732 
  29   2.0000      -0.329629        -8.9697 
  30   2.0000      -0.255208        -6.9446 
  31   0.0000      -0.021367        -0.5814 
  32   0.0000       0.084523         2.3000 
  33   0.0000       0.107121         2.9149 
  34   0.0000       0.133415         3.6304 
  35   0.0000       0.138406         3.7662 
  36   0.0000       0.153371         4.1734 
  37   0.0000       0.166228         4.5233 
  38   0.0000       0.169324         4.6075 
  39   0.0000       0.174588         4.7508 
  40   0.0000       0.183198         4.9851 
  41   0.0000       0.193678         5.2702 
*Only the first 10 virtual orbitals were printed.
------------------
MOLECULAR ORBITALS (RHF, ROHF)
------------------
                      0         1         2         3         4         5   
                 -24.75719 -19.21508 -10.32153 -10.31525 -10.24356 -10.24328
                   2.00000   2.00000   2.00000   2.00000   2.00000   2.00000
                  --------  --------  --------  --------  --------  --------
  0C   1s         0.000003 -0.000033 -0.001296 -0.000462 -0.068825  0.051795
  0C   2s         0.000089 -0.000460  0.000713 -0.001507 -0.001454  0.002689
  0C   1pz        0.000029 -0.000074 -0.000040 -0.000108 -0.000138  0.000117
  0C   1px       -0.000099  0.000030 -0.000392  0.000236  0.000157  0.000172
  0C   1py       -0.000109  0.000035 -0.000299  0.000206 -0.000314 -0.000243
  0C   3s         0.001488  0.003396 -0.006440  0.006621 -0.005521 -0.002168
  0C   2pz       -0.000404  0.001315 -0.001334 -0.000241  0.000972 -0.001075
  0C   2px       -0.001467  0.000432  0.002748 -0.002358 -0.003017  0.001297
  0C   2py        0.000964 -0.003576  0.003491 -0.001782  0.002890  0.001373
  0C   1dz2       0.000013 -0.000053 -0.000504 -0.000074 -0.000261  0.000177
  0C   1dxz      -0.000000 -0.000135  0.000327  0.000059 -0.000408  0.000178
  0C   1dyz      -0.000031  0.000024  0.000116  0.000009  0.000397 -0.000135
  0C   1dx2y2    -0.000021 -0.000320  0.000743  0.000072  0.000252 -0.000062
  0C   1dxy      -0.000020  0.000281  0.000258 -0.000057 -0.000506  0.000141
  1C   1s        -0.000028 -0.000017  0.000259  0.000101 -0.926785  0.353193
  1C   2s        -0.000156 -0.000155  0.001011  0.000519 -0.035021  0.014332
  1C   1pz       -0.000075  0.000011 -0.000089 -0.000150  0.000317 -0.000022
  1C   1px       -0.000133  0.000113 -0.000403  0.000031 -0.000065 -0.000116
  1C   1py       -0.000108 -0.000009  0.000170 -0.000013 -0.000165 -0.000160
  1C   3s         0.002252 -0.000847 -0.002245 -0.003314  0.028246 -0.018803
  1C   2pz        0.001471 -0.001515  0.001472 -0.000302  0.001334 -0.000777
  1C   2px        0.000158 -0.000444  0.002627  0.002133 -0.003171  0.001995
  1C   2py       -0.000135 -0.000398  0.000274  0.000648  0.000096  0.004580
  1C   1dz2      -0.000016 -0.000091  0.000125 -0.000051 -0.000494 -0.000158
  1C   1dxz      -0.000043  0.000062 -0.000026  0.000100 -0.000453  0.000056
  1C   1dyz      -0.000022 -0.000045  0.000021  0.000067 -0.000129 -0.000307
  1C   1dx2y2     0.000025  0.000026 -0.000085 -0.000077 -0.000700 -0.000402
  1C   1dxy       0.000045  0.000008 -0.000017 -0.000054 -0.000321  0.000181
  2C   1s         0.000064 -0.000000 -0.000024 -0.000331 -0.356356 -0.924766
  2C   2s         0.000572 -0.000036 -0.000189 -0.001160 -0.012803 -0.035621
  2C   1pz        0.000101  0.000036 -0.000035 -0.000128 -0.000171 -0.000253
  2C   1px       -0.000074  0.000007 -0.000058  0.000412 -0.000123 -0.000060
  2C   1py        0.000109 -0.000010  0.000032  0.000038  0.000279  0.000006
  2C   3s        -0.001839  0.000272  0.001726  0.003489  0.005459  0.033578
  2C   2pz       -0.000561  0.000318 -0.001099  0.000816 -0.000096 -0.000994
  2C   2px        0.001019  0.000228 -0.001401 -0.002224 -0.001883 -0.002591
  2C   2py       -0.001739 -0.000111  0.001105  0.000949 -0.002880  0.004284
  2C   1dz2       0.000033 -0.000067  0.000057 -0.000042 -0.000550 -0.000418
  2C   1dxz      -0.000070  0.000003  0.000085 -0.000041  0.000078  0.000264
  2C   1dyz       0.000028  0.000001 -0.000071  0.000016 -0.000454 -0.000098
  2C   1dx2y2    -0.000075 -0.000007  0.000033  0.000008 -0.000488  0.000142
  2C   1dxy      -0.000028  0.000043 -0.000150 -0.000041  0.000474  0.000417
  3C   1s        -0.000083 -0.000021  0.000269  0.001313 -0.014243 -0.091366
  3C   2s        -0.000431 -0.000192  0.001145 -0.000943  0.000854 -0.003060
  3C   1pz        0.000127  0.000002 -0.000095 -0.000060 -0.000038  0.000140
  3C   1px       -0.000213  0.000043 -0.000223  0.000094  0.000361  0.000082
  3C   1py        0.000006 -0.000098  0.000371 -0.000207  0.000302  0.000043
  3C   3s         0.004080 -0.000688 -0.003036  0.007606 -0.005516 -0.003035
  3C   2pz       -0.000555 -0.001248  0.001274  0.000585  0.000317 -0.000319
  3C   2px       -0.002024  0.000231  0.000369 -0.003674 -0.002064 -0.003427
  3C   2py        0.002064  0.000336 -0.002854  0.003211 -0.002651 -0.000170
  3C   1dz2      -0.000154 -0.000089  0.000128  0.000223 -0.000087 -0.000394
  3C   1dxz       0.000004  0.000033 -0.000015  0.000408  0.000110  0.000241
  3C   1dyz      -0.000047 -0.000050  0.000020 -0.000292  0.000082  0.000159
  3C   1dx2y2     0.000236 -0.000022  0.000080 -0.000247  0.000277  0.000583
  3C   1dxy      -0.000163  0.000006  0.000008  0.000408  0.000081  0.000233
  4C   1s         0.000294 -0.000032 -0.015487  0.995388 -0.000078  0.000047
  4C   2s         0.001270 -0.000478  0.000106  0.038222  0.000075  0.001200
  4C   1pz        0.000192 -0.000021 -0.000093 -0.000209 -0.000081  0.000039
  4C   1px        0.001091  0.000017  0.000157 -0.001248  0.000128  0.000261
  4C   1py        0.000425 -0.000031  0.000414 -0.000429 -0.000035 -0.000183
  4C   3s        -0.014210  0.003876 -0.005844 -0.034165  0.001466 -0.004694
  4C   2pz        0.004983  0.000643 -0.001062  0.002872 -0.000783 -0.000112
  4C   2px        0.005126  0.003234 -0.002349 -0.005260  0.000958 -0.002494
  4C   2py        0.000631  0.000479 -0.003576 -0.003801  0.000286 -0.000327
  4C   1dz2       0.000450 -0.000059 -0.000506  0.000337  0.000050  0.000009
  4C   1dxz      -0.000504 -0.000052 -0.000057  0.000551 -0.000075 -0.000026
  4C   1dyz      -0.000181  0.000123 -0.000376  0.000107 -0.000002  0.000037
  4C   1dx2y2    -0.000577  0.000199 -0.000756  0.000727  0.000063 -0.000079
  4C   1dxy      -0.000402  0.000361  0.000017  0.000613  0.000045 -0.000141
  5C   1s        -0.000050  0.000264 -0.995242 -0.015471  0.000003 -0.000107
  5C   2s        -0.000064  0.001038 -0.036290 -0.001516  0.000848 -0.000536
  5C   1pz        0.000025 -0.000022  0.000486  0.000003  0.000023  0.000064
  5C   1px       -0.000005  0.000108  0.000919  0.000203  0.000338 -0.000175
  5C   1py       -0.000074 -0.000036 -0.000815  0.000315  0.000092 -0.000065
  5C   3s         0.003048  0.007505  0.018488  0.007667 -0.002058  0.004404
  5C   2pz       -0.001075 -0.004009  0.004216  0.000185  0.000021  0.000389
  5C   2px       -0.003841 -0.009571  0.009513 -0.003690 -0.001497  0.002145
  5C   2py       -0.003036  0.008426 -0.008121 -0.007863  0.000176 -0.000943
  5C   1dz2      -0.000177  0.000046  0.000830  0.000271  0.000090 -0.000056
  5C   1dxz       0.000047 -0.000198 -0.000782  0.000130  0.000100  0.000059
  5C   1dyz       0.000080  0.000148  0.000671  0.000280 -0.000077 -0.000061
  5C   1dx2y2    -0.000070 -0.000072 -0.000190  0.000522  0.000057 -0.000001
  5C   1dxy       0.000183  0.000507  0.001346 -0.000328  0.000078 -0.000155
  6O   1s         0.000012  0.995285 -0.000031 -0.000003  0.000007  0.000005
  6O   2s         0.000174  0.029456 -0.001365 -0.000306  0.000116  0.000040
  6O   1pz       -0.000041  0.000642  0.000254 -0.000051  0.000070 -0.000029
  6O   1px       -0.000024  0.001540  0.000690 -0.000074 -0.000030  0.000007
  6O   1py       -0.000031 -0.001321 -0.000617  0.000074  0.000002 -0.000005
  6O   3s        -0.001481 -0.023578  0.009997  0.000229 -0.000474  0.000056
  6O   2pz        0.000080 -0.002184  0.001686  0.000174 -0.000268  0.000054
  6O   2px        0.000068 -0.005165  0.003833  0.000845  0.000109 -0.000321
  6O   2py        0.000792  0.004426 -0.003281  0.000881  0.000122  0.000149
  6O   1dz2      -0.000058  0.000097 -0.000800 -0.000148  0.000022  0.000042
  6O   1dxz       0.000063 -0.000154  0.000767  0.000133 -0.000032 -0.000012
  6O   1dyz      -0.000004  0.000132 -0.000673 -0.000006 -0.000000  0.000017
  6O   1dx2y2     0.000087 -0.000053  0.000216  0.000238  0.000059 -0.000045
  6O   1dxy       0.000093  0.000359 -0.001457  0.000099 -0.000007  0.000096
  7F   1s        -0.995089  0.000001  0.000003  0.000049  0.000004  0.000007
  7F   2s        -0.027757 -0.000103  0.000236  0.000635  0.000094  0.000213
  7F   1pz       -0.000487 -0.000060  0.000006  0.000119 -0.000031  0.000011
  7F   1px       -0.001349  0.000003  0.000061  0.000057  0.000030  0.000029
  7F   1py       -0.000447  0.000048 -0.000002 -0.000014  0.000006 -0.000037
  7F   3s         0.016815  0.000692 -0.000815 -0.000263 -0.000192 -0.000682
  7F   2pz        0.001528  0.000246  0.000009 -0.001308  0.000169 -0.000051
  7F   2px        0.004778 -0.000013 -0.000132 -0.001884 -0.000190 -0.000099
  7F   2py        0.001631 -0.000254  0.000210 -0.000431 -0.000043  0.000136
  7F   1dz2      -0.000310  0.000089  0.000024  0.000699  0.000048 -0.000008
  7F   1dxz       0.000473 -0.000033  0.000023 -0.001176  0.000019  0.000038
  7F   1dyz       0.000163  0.000031  0.000123 -0.000378  0.000004 -0.000024
  7F   1dx2y2     0.000707 -0.000005  0.000131 -0.001219 -0.000005  0.000014
  7F   1dxy       0.000545 -0.000055  0.000035 -0.000886 -0.000005  0.000061
  8H   1s        -0.000160  0.000063  0.000047 -0.000181  0.000404 -0.000182
  8H   2s        -0.000398  0.001173 -0.001166  0.000645 -0.000730 -0.000850
  8H   1pz       -0.000036  0.000026  0.000043  0.000023  0.000083 -0.000048
  8H   1px        0.000010  0.000091 -0.000048 -0.000003 -0.000006 -0.000010
  8H   1py        0.000006  0.000061 -0.000056 -0.000042 -0.000154  0.000142
  9H   1s         0.000092 -0.000155  0.000660 -0.000368  0.000609  0.000069
  9H   2s        -0.000020 -0.000957 -0.000048 -0.000490 -0.000258  0.001063
  9H   1pz        0.000020  0.000030 -0.000052  0.000003 -0.000156  0.000069
  9H   1px        0.000015 -0.000079  0.000200  0.000137 -0.000050  0.000058
  9H   1py       -0.000060  0.000150 -0.000045  0.000126 -0.000035 -0.000184
 10H   1s        -0.000195  0.000100 -0.000120 -0.000048  0.000949 -0.000003
 10H   2s        -0.000516  0.000604 -0.001393 -0.000296 -0.003260  0.001005
 10H   1pz       -0.000059  0.000053 -0.000048  0.000064 -0.000515  0.000136
 10H   1px        0.000054 -0.000021  0.000037 -0.000050 -0.001254  0.000406
 10H   1py        0.000038 -0.000018  0.000037  0.000002 -0.000387  0.000104
 11H   1s         0.000106 -0.000032  0.000437  0.000314  0.000740  0.000264
 11H   2s         0.000413 -0.000881  0.000867  0.000011 -0.004390  0.001710
 11H   1pz        0.000011 -0.000033  0.000008  0.000018  0.001276 -0.000430
 11H   1px       -0.000010  0.000029 -0.000162 -0.000077  0.000314 -0.000115
 11H   1py       -0.000017  0.000030 -0.000001 -0.000036  0.000010  0.000071
 12H   1s        -0.000127 -0.000007  0.000008 -0.000009  0.000599  0.000699
 12H   2s        -0.000550 -0.000145  0.000134  0.001176 -0.001500 -0.003161
 12H   1pz       -0.000054 -0.000016  0.000096  0.000016  0.000361  0.000753
 12H   1px       -0.000004 -0.000005  0.000064 -0.000033 -0.000357 -0.000840
 12H   1py        0.000001 -0.000004 -0.000043  0.000028  0.000339  0.000733
 13H   1s         0.000278  0.000041 -0.000133 -0.000345  0.000709  0.000408
 13H   2s         0.000024 -0.000330  0.000882 -0.000592 -0.001739 -0.004280
 13H   1pz        0.000030  0.000001 -0.000031 -0.000012 -0.000546 -0.001290
 13H   1px       -0.000050  0.000011  0.000024  0.000171 -0.000029  0.000005
 13H   1py        0.000085 -0.000009 -0.000025 -0.000048 -0.000059 -0.000015
 14H   1s        -0.000276 -0.000025  0.000473 -0.000625  0.000479  0.000434
 14H   2s        -0.000459 -0.000724  0.000752 -0.000037  0.000548 -0.000798
 14H   1pz        0.000047 -0.000022 -0.000006 -0.000035  0.000054  0.000165
 14H   1px       -0.000079 -0.000018 -0.000023 -0.000070  0.000074 -0.000074
 14H   1py       -0.000021 -0.000033  0.000169  0.000028  0.000138 -0.000095
 15H   1s        -0.000004  0.000057 -0.000081 -0.000277  0.000148  0.000412
 15H   2s         0.000627  0.000535 -0.001429  0.000297 -0.001223 -0.000047
 15H   1pz        0.000011  0.000044 -0.000035  0.000045 -0.000016 -0.000103
 15H   1px        0.000023  0.000011 -0.000031  0.000074 -0.000003  0.000059
 15H   1py        0.000076  0.000023 -0.000045 -0.000084  0.000011  0.000209
 16H   1s         0.000263 -0.000104  0.000658 -0.000726 -0.000065  0.000389
 16H   2s        -0.000019 -0.000630 -0.000270  0.003993  0.000459  0.000511
 16H   1pz       -0.000097  0.000010 -0.000059  0.001318 -0.000008 -0.000027
 16H   1px       -0.000481 -0.000157  0.000049  0.000328 -0.000010  0.000173
 16H   1py       -0.000129  0.000044 -0.000169  0.000011  0.000001  0.000002
                      6         7         8         9        10        11   
                 -10.24233 -10.24224  -1.22269  -1.05709  -0.87108  -0.78666
                   2.00000   2.00000   2.00000   2.00000   2.00000   2.00000
                  --------  --------  --------  --------  --------  --------
  0C   1s        -0.990888 -0.041000 -0.001138  0.021460 -0.083888  0.118499
  0C   2s        -0.038507 -0.001129  0.002667 -0.040269  0.153705 -0.217648
  0C   1pz       -0.000344  0.000112 -0.000113  0.006340 -0.014301  0.017415
  0C   1px       -0.000036  0.000044 -0.001812  0.026162  0.005540 -0.025865
  0C   1py       -0.000065  0.000020 -0.001488  0.003899 -0.046320  0.016131
  0C   3s         0.038083 -0.001585  0.007034 -0.007173  0.118642 -0.212893
  0C   2pz       -0.002370  0.000050 -0.002738  0.006727 -0.002408  0.003289
  0C   2px       -0.002469  0.000246 -0.007679  0.004296  0.002589  0.000189
  0C   2py       -0.004086  0.001874  0.006306 -0.014727 -0.009249  0.009174
  0C   1dz2      -0.000504 -0.000055 -0.000113  0.002173 -0.002521  0.000798
  0C   1dxz      -0.000023  0.000000  0.000144 -0.001945 -0.001716  0.002098
  0C   1dyz       0.000375 -0.000079 -0.000019 -0.000433  0.002801 -0.002145
  0C   1dx2y2     0.000542  0.000129  0.000297 -0.004504 -0.000109 -0.001374
  0C   1dxy      -0.000114 -0.000054  0.000129 -0.000741 -0.000937  0.003164
  1C   1s         0.081944  0.022740 -0.000523  0.004981 -0.098197  0.094958
  1C   2s         0.004088 -0.000172  0.000593 -0.010020  0.178467 -0.175987
  1C   1pz        0.000082  0.000075 -0.000312 -0.001378  0.022170 -0.019352
  1C   1px       -0.000250  0.000196 -0.001255  0.005789 -0.037964  0.024147
  1C   1py        0.000021  0.000319 -0.000537 -0.001954 -0.019578 -0.052133
  1C   3s        -0.010559  0.001588  0.009490 -0.007766  0.140355 -0.152980
  1C   2pz       -0.000860 -0.000394  0.008362 -0.008098  0.002900 -0.001789
  1C   2px        0.003797 -0.001887  0.001874 -0.003112 -0.010137  0.003654
  1C   2py       -0.002542 -0.000780  0.000322 -0.001506 -0.004762 -0.008987
  1C   1dz2      -0.000208 -0.000075 -0.000092  0.000087 -0.003300  0.000697
  1C   1dxz      -0.000390 -0.000006 -0.000177  0.000610 -0.002932  0.002450
  1C   1dyz       0.000352  0.000008 -0.000055 -0.000368 -0.000460 -0.003008
  1C   1dx2y2    -0.000064  0.000007  0.000092  0.000074 -0.002132 -0.001331
  1C   1dxy      -0.000502  0.000034  0.000139  0.000520 -0.000732  0.005413
  2C   1s        -0.019590 -0.091396 -0.000793  0.002450 -0.101388 -0.020907
  2C   2s         0.000293 -0.004281  0.003282 -0.005632  0.184930  0.040360
  2C   1pz        0.000101  0.000053  0.000294  0.000230 -0.013125 -0.000356
  2C   1px       -0.000042  0.000263 -0.001942  0.002061 -0.036124 -0.057906
  2C   1py        0.000392 -0.000024  0.000478 -0.002050  0.030381 -0.063768
  2C   3s        -0.002050  0.010029 -0.000573  0.001311  0.140270  0.026055
  2C   2pz       -0.000818 -0.000256 -0.004637  0.004256 -0.000761  0.000238
  2C   2px        0.001467 -0.004143  0.002579 -0.000138 -0.006717 -0.005724
  2C   2py       -0.001326 -0.001127 -0.009063 -0.000153  0.008054 -0.011174
  2C   1dz2       0.000038  0.000363 -0.000016  0.000086 -0.004244 -0.000386
  2C   1dxz       0.000048 -0.000314  0.000021 -0.000080  0.001312  0.001880
  2C   1dyz      -0.000012 -0.000081  0.000111  0.000115 -0.001482  0.002338
  2C   1dx2y2     0.000038 -0.000402 -0.000010 -0.000038 -0.000253  0.008296
  2C   1dxy       0.000056 -0.000415  0.000159  0.000306  0.001694  0.001709
  3C   1s        -0.044891  0.990112 -0.009945  0.003166 -0.095191 -0.113447
  3C   2s        -0.002255  0.037995  0.015198 -0.007488  0.173523  0.210224
  3C   1pz        0.000158 -0.000262  0.004258 -0.000687  0.020471  0.021468
  3C   1px       -0.000045 -0.000121 -0.014140  0.000559  0.017972 -0.025216
  3C   1py        0.000041 -0.000033  0.006228 -0.004716  0.041127  0.016133
  3C   3s         0.004954 -0.034441  0.025013 -0.003208  0.137485  0.193030
  3C   2pz        0.000243 -0.001558 -0.001482 -0.007552  0.003812  0.004758
  3C   2px        0.000183 -0.000768 -0.017853 -0.001766  0.007548  0.002077
  3C   2py        0.002296 -0.003966  0.009779  0.004184  0.009686  0.005571
  3C   1dz2      -0.000002  0.000361 -0.001837 -0.000118 -0.003234 -0.001009
  3C   1dxz       0.000053  0.000104 -0.001562  0.000205  0.000040 -0.001829
  3C   1dyz       0.000106 -0.000363  0.000990 -0.000412  0.002827  0.002121
  3C   1dx2y2    -0.000041 -0.000496  0.002235  0.000115  0.001877  0.001274
  3C   1dxy       0.000023  0.000176 -0.002922  0.000137  0.000491 -0.003355
  4C   1s        -0.000066 -0.001392 -0.063228  0.013571 -0.070421 -0.087449
  4C   2s         0.001599 -0.000831  0.122464 -0.026437  0.135036  0.170630
  4C   1pz        0.000046  0.000169 -0.034658  0.003885 -0.010833 -0.013655
  4C   1px        0.000150 -0.000158 -0.087125 -0.009388  0.067693  0.057497
  4C   1py        0.000241  0.000082 -0.028242 -0.031358  0.005718 -0.033688
  4C   3s        -0.007422  0.007248 -0.012554 -0.003337  0.098164  0.147160
  4C   2pz        0.000842 -0.001485  0.019555  0.005943 -0.001390  0.000519
  4C   2px       -0.001191  0.002429  0.013857  0.013248  0.020774  0.025331
  4C   2py       -0.002040 -0.003145  0.001390 -0.000980  0.003685  0.002603
  4C   1dz2       0.000059  0.000265 -0.006905  0.001471 -0.001396  0.000337
  4C   1dxz      -0.000040  0.000418  0.009354  0.000833 -0.004453 -0.004233
  4C   1dyz       0.000056 -0.000398  0.003236  0.002661  0.000882  0.002126
  4C   1dx2y2    -0.000016  0.000074  0.011301  0.005506 -0.001642 -0.001760
  4C   1dxy       0.000028  0.000542  0.008705  0.001699 -0.002033 -0.006085
  5C   1s         0.001288  0.000134 -0.012370  0.117608 -0.041081  0.007995
  5C   2s         0.000927 -0.000945  0.021752 -0.219983  0.080019 -0.014804
  5C   1pz        0.000028  0.000000 -0.000365  0.050831  0.028433 -0.005078
  5C   1px        0.000297  0.000018 -0.010681  0.121865  0.082740 -0.080807
  5C   1py        0.000197  0.000352 -0.010660 -0.107455 -0.063169 -0.067792
  5C   3s        -0.007567  0.002878  0.021379 -0.079706  0.051370 -0.011009
  5C   2pz       -0.000074  0.000276 -0.003803 -0.016539  0.008808 -0.001654
  5C   2px       -0.006713  0.001035 -0.015505 -0.039576  0.020467 -0.005241
  5C   2py       -0.004912 -0.001873 -0.018794  0.031831 -0.013547  0.000293
  5C   1dz2      -0.000328 -0.000142 -0.002805  0.010091 -0.002681  0.000563
  5C   1dxz       0.000220 -0.000050  0.000405 -0.010220 -0.001099 -0.001288
  5C   1dyz       0.000158  0.000045 -0.000879  0.008829  0.000728 -0.002174
  5C   1dx2y2     0.000482  0.000052 -0.002492 -0.003216 -0.000613 -0.008083
  5C   1dxy       0.000523 -0.000081  0.001839  0.020129  0.006201 -0.003819
  6O   1s         0.000002 -0.000005 -0.008225  0.192221  0.040248 -0.009881
  6O   2s         0.000251 -0.000075  0.017374 -0.418729 -0.092111  0.023249
  6O   1pz        0.000048 -0.000066  0.002333 -0.046663 -0.004335  0.000242
  6O   1px        0.000081  0.000015  0.004193 -0.110603 -0.006956 -0.014229
  6O   1py       -0.000103 -0.000046 -0.007147  0.094602  0.008641 -0.017072
  6O   3s         0.000122  0.000579  0.011950 -0.411404 -0.082533  0.022579
  6O   2pz       -0.000112  0.000236  0.001313 -0.019506 -0.000908  0.000045
  6O   2px        0.000823  0.000015  0.001632 -0.046199  0.001017 -0.006854
  6O   2py        0.000942  0.000202 -0.000432  0.038642  0.000154 -0.006800
  6O   1dz2       0.000144  0.000018 -0.000654  0.002231 -0.000434  0.000327
  6O   1dxz      -0.000012 -0.000017  0.000401 -0.004211 -0.000084 -0.000686
  6O   1dyz       0.000121 -0.000013 -0.000392  0.003559  0.000129 -0.000561
  6O   1dx2y2     0.000242  0.000046 -0.000413 -0.001615  0.000233 -0.002829
  6O   1dxy      -0.000046  0.000051 -0.000224  0.011661  0.000216 -0.000548
  7F   1s        -0.000001  0.000011 -0.223430 -0.020055  0.028271  0.038568
  7F   2s         0.000066  0.000006  0.473869  0.043372 -0.063154 -0.086999
  7F   1pz        0.000008  0.000023  0.028949  0.001724  0.004609  0.013983
  7F   1px        0.000005 -0.000080  0.080640  0.000772  0.030787  0.068230
  7F   1py        0.000036 -0.000006  0.026293 -0.005901  0.004760  0.010038
  7F   3s         0.000143 -0.000619  0.526405  0.054239 -0.078773 -0.114166
  7F   2pz       -0.000002 -0.000178  0.019331  0.001997  0.003937  0.008412
  7F   2px        0.000168 -0.000171  0.055535  0.002038  0.016639  0.037848
  7F   2py       -0.000033 -0.000003  0.017303 -0.004092  0.002788  0.006568
  7F   1dz2       0.000040 -0.000073 -0.004825  0.000517 -0.001046 -0.002155
  7F   1dxz      -0.000009 -0.000157  0.007119  0.000154  0.001106  0.002046
  7F   1dyz       0.000030  0.000153  0.002485  0.000114  0.000319  0.000387
  7F   1dx2y2     0.000064  0.000039  0.009285  0.000876  0.002141  0.003631
  7F   1dxy       0.000036 -0.000183  0.007229 -0.000523  0.000906  0.001374
  8H   1s         0.000599  0.000010 -0.000414 -0.009357  0.035686 -0.072190
  8H   2s        -0.004033 -0.000579 -0.002684  0.003021  0.003723 -0.017564
  8H   1pz        0.000683 -0.000019 -0.000070 -0.000315  0.001332 -0.002331
  8H   1px       -0.000095 -0.000024  0.000034  0.001037 -0.000112  0.000226
  8H   1py       -0.001237 -0.000083 -0.000039  0.001378 -0.003715  0.006440
  9H   1s         0.000567  0.000286  0.000864 -0.008139  0.044506 -0.070024
  9H   2s        -0.004505 -0.000149  0.000169 -0.002775  0.006558 -0.014939
  9H   1pz       -0.001412 -0.000074  0.000003  0.001058 -0.004444  0.006486
  9H   1px       -0.000104  0.000005  0.000079 -0.000128 -0.000672  0.000459
  9H   1py        0.000156 -0.000083 -0.000257  0.000289 -0.000936  0.000260
 10H   1s         0.000220  0.000013 -0.000689 -0.000912  0.044844 -0.059062
 10H   2s         0.000019  0.001217 -0.003221  0.003714  0.007640 -0.015703
 10H   1pz       -0.000005 -0.000006 -0.000180  0.000239 -0.001030  0.001067
 10H   1px        0.000016 -0.000012  0.000190  0.000112 -0.004476  0.005355
 10H   1py        0.000050 -0.000018  0.000085 -0.000008 -0.001422  0.000993
 11H   1s         0.000541 -0.000266  0.000792 -0.002757  0.049434 -0.054196
 11H   2s         0.000446 -0.000553  0.002943 -0.004324  0.005836 -0.010550
 11H   1pz       -0.000066 -0.000052  0.000101 -0.000352  0.005123 -0.005162
 11H   1px        0.000016  0.000135 -0.000108  0.000186 -0.000086 -0.000169
 11H   1py       -0.000072  0.000116 -0.000076  0.000064 -0.000591 -0.000458
 12H   1s         0.000001 -0.000234 -0.000543 -0.000586  0.046526  0.013037
 12H   2s        -0.001187 -0.000171 -0.003393  0.000883  0.008061  0.002602
 12H   1pz       -0.000001  0.000006 -0.000076 -0.000121  0.002119  0.000487
 12H   1px        0.000004 -0.000021  0.000007 -0.000031 -0.003453 -0.001466
 12H   1py       -0.000019  0.000045  0.000034  0.000009  0.002956 -0.000058
 13H   1s         0.000308 -0.000456  0.001280 -0.001295  0.051790  0.012529
 13H   2s         0.000492 -0.000258  0.000345 -0.003351  0.007440  0.002972
 13H   1pz       -0.000018 -0.000077  0.000046  0.000190 -0.005156 -0.001106
 13H   1px       -0.000073 -0.000059 -0.000176  0.000132 -0.001258 -0.001093
 13H   1py        0.000162 -0.000028  0.000284 -0.000095  0.000857 -0.000864
 14H   1s        -0.000264 -0.000526  0.002383 -0.002193  0.047583  0.064274
 14H   2s        -0.000329  0.004670 -0.000905 -0.003869  0.005256  0.012052
 14H   1pz        0.000045 -0.001344  0.000821 -0.000204  0.004897  0.006091
 14H   1px       -0.000029 -0.000137 -0.000258 -0.000045  0.000758  0.000194
 14H   1py       -0.000090  0.000255 -0.000035 -0.000231  0.000428 -0.000110
 15H   1s         0.000066 -0.000783  0.002906 -0.000290  0.042807  0.069352
 15H   2s         0.000151  0.003539  0.003537  0.004087  0.006397  0.017087
 15H   1pz       -0.000078  0.000563 -0.000199  0.000194 -0.001137 -0.001582
 15H   1px        0.000020 -0.000184  0.000128  0.000049  0.000635  0.000466
 15H   1py        0.000018 -0.001322  0.000835  0.000029  0.004428  0.006284
 16H   1s         0.000373 -0.000478  0.019413 -0.005329  0.039447  0.054106
 16H   2s         0.000366  0.000218  0.001298 -0.001036  0.005460  0.010384
 16H   1pz       -0.000014  0.000064 -0.004614  0.000482 -0.003685 -0.004751
 16H   1px        0.000081  0.000078 -0.002070 -0.000464  0.000815  0.000470
 16H   1py        0.000130 -0.000024 -0.000231  0.000038  0.000540 -0.000133
                     12        13        14        15        16        17   
                  -0.75739  -0.65625  -0.62331  -0.57356  -0.52256  -0.50511
                   2.00000   2.00000   2.00000   2.00000   2.00000   2.00000
                  --------  --------  --------  --------  --------  --------
  0C   1s         0.071992  0.086322 -0.009472  0.045224  0.022885  0.012990
  0C   2s        -0.136389 -0.163734  0.016733 -0.087034 -0.048244 -0.021776
  0C   1pz       -0.013058 -0.023589  0.058904 -0.083972 -0.006011 -0.138139
  0C   1px        0.066680  0.049416 -0.132873 -0.078149 -0.002384 -0.142325
  0C   1py        0.003052 -0.065100 -0.005495 -0.092789 -0.098400  0.070371
  0C   3s        -0.121777 -0.191539  0.032311 -0.122357 -0.064121 -0.043691
  0C   2pz       -0.003292 -0.007510  0.019297 -0.030134  0.003149 -0.071257
  0C   2px        0.007594  0.018558 -0.039715 -0.019761 -0.002679 -0.052215
  0C   2py       -0.000095 -0.014405 -0.011628 -0.023910 -0.055715  0.053039
  0C   1dz2       0.000687 -0.002069 -0.001157 -0.004341 -0.002027 -0.003927
  0C   1dxz      -0.001508 -0.003015  0.004654  0.000818 -0.001661 -0.000519
  0C   1dyz       0.000894  0.002655 -0.002311  0.005021  0.002536 -0.000194
  0C   1dx2y2    -0.002149  0.000018  0.001491  0.002721  0.001136  0.004303
  0C   1dxy      -0.006778 -0.002978  0.007552  0.004060 -0.000581  0.003853
  1C   1s        -0.059582 -0.078331  0.091272 -0.021754 -0.021325 -0.006902
  1C   2s         0.110969  0.149259 -0.174146  0.040186  0.043114  0.012645
  1C   1pz       -0.005464 -0.021545  0.057073 -0.084343  0.003364 -0.200653
  1C   1px        0.034545  0.060882 -0.036816 -0.031685 -0.028736  0.021286
  1C   1py       -0.080691 -0.054299 -0.105409 -0.032734  0.005991 -0.009073
  1C   3s         0.102497  0.166081 -0.209722  0.059663  0.038942  0.032759
  1C   2pz       -0.000525 -0.004674  0.015831 -0.036078 -0.007987 -0.082574
  1C   2px        0.006883  0.015518 -0.003644 -0.025513 -0.009292  0.004301
  1C   2py       -0.014397 -0.016221 -0.030996 -0.018188  0.005987 -0.007590
  1C   1dz2      -0.001027  0.001236 -0.003453  0.000970  0.001796  0.002687
  1C   1dxz       0.002195  0.002795 -0.002337  0.001600 -0.001326  0.004726
  1C   1dyz      -0.004007 -0.003532 -0.004150 -0.000937 -0.001069 -0.000626
  1C   1dx2y2    -0.006145 -0.000386 -0.004924  0.003110  0.003850 -0.000737
  1C   1dxy       0.004177  0.003832  0.000125  0.002545  0.002658 -0.001690
  2C   1s        -0.119939 -0.018350 -0.104315  0.025595  0.025128  0.001663
  2C   2s         0.221728  0.037084  0.198289 -0.050539 -0.055339 -0.000235
  2C   1pz       -0.016239  0.003687  0.055452 -0.093420  0.040641 -0.137926
  2C   1px        0.015721  0.085627  0.037410 -0.042300 -0.099381  0.039453
  2C   1py        0.006581  0.089185 -0.068549  0.042091  0.068890 -0.091604
  2C   3s         0.214819  0.029695  0.238291 -0.068815 -0.048308 -0.021349
  2C   2pz       -0.003920  0.001516  0.022485 -0.029335  0.024088 -0.064966
  2C   2px       -0.001015  0.027986  0.001503 -0.013908 -0.057204  0.027437
  2C   2py        0.002102  0.023044 -0.014371  0.012397  0.043892 -0.045648
  2C   1dz2      -0.000728  0.000912  0.004637 -0.002924 -0.002733 -0.001190
  2C   1dxz       0.000382 -0.003693 -0.001397  0.002952  0.000433 -0.003004
  2C   1dyz      -0.001099 -0.003798  0.003227 -0.002042 -0.003173 -0.000756
  2C   1dx2y2    -0.001717 -0.006801  0.002166  0.000165  0.001012  0.000677
  2C   1dxy       0.002394 -0.002054 -0.004888 -0.000542  0.002394  0.000325
  3C   1s        -0.025456  0.099746  0.058533 -0.020714 -0.011072 -0.001251
  3C   2s         0.046442 -0.190513 -0.111813  0.037706  0.022376  0.002521
  3C   1pz       -0.014365  0.034630  0.035525 -0.115445  0.115806 -0.024947
  3C   1px        0.094056 -0.015624  0.131562  0.018317  0.006663  0.061256
  3C   1py       -0.026439  0.066790  0.024599  0.052854  0.032211 -0.109937
  3C   3s         0.043694 -0.201976 -0.141078  0.053685  0.008246  0.017351
  3C   2pz       -0.000864  0.009287  0.011011 -0.045237  0.051856 -0.007606
  3C   2px        0.013462 -0.000444  0.038079  0.010044  0.003721  0.033292
  3C   2py       -0.004654  0.019872  0.000150  0.033851  0.010264 -0.038023
  3C   1dz2      -0.001128 -0.002051 -0.002836  0.000703  0.001886  0.001266
  3C   1dxz       0.004645 -0.002486  0.005240  0.003054 -0.002655 -0.003758
  3C   1dyz      -0.002027  0.003038  0.001547 -0.001481  0.004815 -0.003662
  3C   1dx2y2     0.004837  0.001244  0.003605 -0.004451 -0.006693  0.001259
  3C   1dxy       0.007250 -0.002439  0.003576  0.000336  0.003270  0.003240
  4C   1s         0.097157 -0.080835  0.021507  0.042585  0.000847  0.004510
  4C   2s        -0.193649  0.167412 -0.047228 -0.091038 -0.018402 -0.005694
  4C   1pz       -0.014886  0.057866  0.048398 -0.174115  0.218696  0.179049
  4C   1px       -0.024734 -0.061492 -0.003238  0.092043  0.223823 -0.088754
  4C   1py       -0.069329  0.105023  0.143070  0.168096 -0.003389 -0.029858
  4C   3s        -0.159735  0.158354 -0.029090 -0.091486  0.046741 -0.030260
  4C   2pz       -0.009551  0.027034  0.010216 -0.080616  0.078978  0.090987
  4C   2px       -0.023881  0.003774 -0.004358  0.000656  0.045210 -0.049617
  4C   2py       -0.016225  0.038465  0.040278  0.050058 -0.012466 -0.032447
  4C   1dz2      -0.000037  0.001323 -0.002083 -0.003101  0.006639  0.001645
  4C   1dxz       0.001285  0.003052  0.001205 -0.003346 -0.012097 -0.002770
  4C   1dyz       0.001772 -0.005224 -0.005321 -0.003211 -0.003151 -0.001364
  4C   1dx2y2     0.005768 -0.001077 -0.002343 -0.007502 -0.008054  0.000351
  4C   1dxy      -0.003007  0.003787  0.003458 -0.001626 -0.006072  0.003841
  5C   1s         0.079888 -0.013297 -0.067292 -0.079296  0.008918 -0.040415
  5C   2s        -0.159349  0.028259  0.139822  0.164722 -0.024407  0.087991
  5C   1pz       -0.057982  0.016467  0.059080 -0.038224  0.052648  0.009092
  5C   1px       -0.090520 -0.103617  0.061725  0.028675  0.047955  0.052527
  5C   1py        0.097230 -0.140839 -0.024855 -0.099366 -0.007795  0.146186
  5C   3s        -0.128499  0.028058  0.116860  0.168054 -0.018756  0.103363
  5C   2pz       -0.019016  0.004684  0.025410 -0.006171  0.024588  0.019541
  5C   2px       -0.031789 -0.017066  0.025538  0.044578  0.029701  0.039347
  5C   2py        0.027455 -0.027592 -0.016783 -0.048429  0.003372  0.019132
  5C   1dz2       0.003204 -0.000123 -0.000376 -0.001908  0.002608 -0.000003
  5C   1dxz       0.000826 -0.003011  0.001085 -0.000601 -0.001115 -0.004776
  5C   1dyz       0.000522 -0.004176 -0.000250  0.002112 -0.004945 -0.004231
  5C   1dx2y2     0.003130 -0.005295  0.000428 -0.000381  0.000215 -0.000747
  5C   1dxy      -0.010769 -0.000104  0.004783 -0.000395 -0.009676  0.003419
  6O   1s        -0.053527  0.005075  0.036642  0.039673 -0.024919  0.038535
  6O   2s         0.124086 -0.011597 -0.087212 -0.095644  0.056378 -0.089472
  6O   1pz       -0.007512  0.006106  0.028932 -0.005413  0.000801  0.057595
  6O   1px       -0.006824 -0.035095  0.035204  0.046422 -0.043857  0.153154
  6O   1py        0.008287 -0.048248 -0.023000 -0.080422  0.062398 -0.010826
  6O   3s         0.126024 -0.014617 -0.098449 -0.107434  0.099519 -0.131414
  6O   2pz       -0.004435  0.003365  0.014723 -0.001426  0.002090  0.030877
  6O   2px       -0.007604 -0.016354  0.019719  0.025325 -0.020785  0.083707
  6O   2py        0.007209 -0.023194 -0.015558 -0.047706  0.029350 -0.001940
  6O   1dz2       0.001147 -0.000016 -0.001165 -0.004031  0.003547 -0.002284
  6O   1dxz      -0.001172 -0.000832  0.002708 -0.000309 -0.000345  0.004991
  6O   1dyz       0.001178 -0.002075 -0.002060 -0.000628  0.000536 -0.001994
  6O   1dx2y2     0.000074 -0.005849  0.000895 -0.002028  0.001072  0.008181
  6O   1dxy       0.001029 -0.001175 -0.001839 -0.005139  0.002958 -0.003658
[...]
  0-1A  ->  6-1A    8.034133   64799.7   154.3   0.012776893   0.06491   0.15979   0.17549  -0.09264
  0-1A  ->  7-1A    8.442097   68090.1   146.9   0.030912003   0.14946   0.36709  -0.09578   0.07434
  0-1A  ->  8-1A    8.565535   69085.7   144.7   0.005518169   0.02630   0.13816  -0.08381   0.01356
  0-1A  ->  9-1A    8.688790   70079.8   142.7   0.035244337   0.16557  -0.33964   0.18747  -0.12273
  0-1A  -> 10-1A    9.078272   73221.2   136.6   0.010852283   0.04879  -0.03153   0.17829  -0.12653
  0-1A  -> 11-1A    9.274674   74805.3   133.7   0.014167894   0.06235  -0.20791   0.13391  -0.03457
  0-1A  -> 12-1A    9.465203   76342.0   131.0   0.053686242   0.23151   0.34563  -0.28851   0.16974
  0-1A  -> 13-1A    9.496864   76597.4   130.6   0.014680742   0.06310   0.07474   0.22796   0.07446
  0-1A  -> 14-1A    9.870954   79614.6   125.6   0.005370053   0.02221  -0.11428   0.08989   0.03264
  0-1A  -> 15-1A    9.959537   80329.1   124.5   0.026400642   0.10820   0.20043   0.23032  -0.12238
  0-1A  -> 16-1A   10.039217   80971.8   123.5   0.002947863   0.01199   0.04581  -0.06189  -0.07782
  0-1A  -> 17-1A   10.240641   82596.3   121.1   0.022923966   0.09137  -0.19246  -0.15062  -0.17788
  0-1A  -> 18-1A   10.359187   83552.5   119.7   0.018331855   0.07223   0.22889  -0.11993  -0.07387
  0-1A  -> 19-1A   10.450608   84289.8   118.6   0.010305909   0.04025   0.06788   0.17412  -0.07299
  0-1A  -> 20-1A   10.534089   84963.2   117.7   0.012175489   0.04718  -0.07720  -0.08183   0.18580
  0-1A  -> 21-1A   10.577527   85313.5   117.2   0.012385878   0.04780  -0.15525   0.13682   0.07052
  0-1A  -> 22-1A   10.615303   85618.2   116.8   0.009639280   0.03706  -0.10058  -0.11597  -0.11618
  0-1A  -> 23-1A   10.620202   85657.7   116.7   0.010831611   0.04163   0.06291   0.18912  -0.04366
  0-1A  -> 24-1A   10.774911   86905.5   115.1   0.006735923   0.02552   0.08783  -0.11938   0.05958
  0-1A  -> 25-1A   10.801036   87116.2   114.8   0.028221738   0.10665   0.13473  -0.28687  -0.07877

----------------------------------------------------------------------------------------------------
                     ABSORPTION SPECTRUM VIA TRANSITION VELOCITY DIPOLE MOMENTS    
----------------------------------------------------------------------------------------------------
     Transition      Energy     Energy  Wavelength fosc(P2)      P2        PX        PY        PZ   
                      (eV)      (cm-1)    (nm)                 (au**2)    (au)      (au)      (au)  
----------------------------------------------------------------------------------------------------
  0-1A  ->  1-1A    4.033786   32534.7   307.4   0.000005808   0.00000  -0.00106  -0.00033  -0.00024
  0-1A  ->  2-1A    7.049430   56857.5   175.9   0.026389842   0.01025   0.05621  -0.08378  -0.00873
  0-1A  ->  3-1A    7.465747   60215.3   166.1   0.022305236   0.00918  -0.04809   0.07589  -0.03329
  0-1A  ->  4-1A    7.894197   63671.0   157.1   0.011184866   0.00487   0.06326  -0.00711   0.02854
  0-1A  ->  5-1A    8.001892   64539.6   154.9   0.000517093   0.00023   0.00908   0.01072   0.00553
  0-1A  ->  6-1A    8.034133   64799.7   154.3   0.010959775   0.00485  -0.04624  -0.04943   0.01650
  0-1A  ->  7-1A    8.442097   68090.1   146.9   0.027896334   0.01298  -0.10788   0.02872  -0.02278
  0-1A  ->  8-1A    8.565535   69085.7   144.7   0.004597114   0.00217  -0.04094   0.02153  -0.00556
  0-1A  ->  9-1A    8.688790   70079.8   142.7   0.030874130   0.01479   0.10083  -0.06019   0.03160
  0-1A  -> 10-1A    9.078272   73221.2   136.6   0.011239524   0.00562   0.00460  -0.05487   0.05092
  0-1A  -> 11-1A    9.274674   74805.3   133.7   0.013522865   0.00691   0.06812  -0.04632   0.01130
  0-1A  -> 12-1A    9.465203   76342.0   131.0   0.046724702   0.02438  -0.11215   0.09277  -0.05654
  0-1A  -> 13-1A    9.496864   76597.4   130.6   0.015770816   0.00826  -0.02394  -0.08042  -0.03486
  0-1A  -> 14-1A    9.870954   79614.6   125.6   0.009207583   0.00501   0.05258  -0.04175  -0.02243
  0-1A  -> 15-1A    9.959537   80329.1   124.5   0.024659000   0.01354  -0.06401  -0.08626   0.04473
  0-1A  -> 16-1A   10.039217   80971.8   123.5   0.003781863   0.00209  -0.02045   0.02779   0.03004
  0-1A  -> 17-1A   10.240641   82596.3   121.1   0.027182159   0.01534   0.08885   0.06411   0.05780
  0-1A  -> 18-1A   10.359187   83552.5   119.7   0.016129300   0.00921  -0.08366   0.04247   0.02017
  0-1A  -> 19-1A   10.450608   84289.8   118.6   0.009562313   0.00551  -0.02452  -0.06632   0.02257
  0-1A  -> 20-1A   10.534089   84963.2   117.7   0.010287905   0.00597   0.02590   0.03141  -0.06570
  0-1A  -> 21-1A   10.577527   85313.5   117.2   0.012464130   0.00727   0.05872  -0.05283  -0.03206
  0-1A  -> 22-1A   10.615303   85618.2   116.8   0.007339689   0.00429   0.03369   0.03799   0.04144
  0-1A  -> 23-1A   10.620202   85657.7   116.7   0.010765841   0.00630  -0.02208  -0.07252   0.02360
  0-1A  -> 24-1A   10.774911   86905.5   115.1   0.005948203   0.00353  -0.04221   0.03499  -0.02296
  0-1A  -> 25-1A   10.801036   87116.2   114.8   0.022560895   0.01343  -0.04343   0.10632   0.01556

------------------------------------------------------------------------------------------
                     CD SPECTRUM VIA TRANSITION ELECTRIC DIPOLE MOMENTS    
------------------------------------------------------------------------------------------
     Transition      Energy     Energy  Wavelength    R        MX        MY        MZ   
                      (eV)      (cm-1)    (nm)   (1e40*cgs)   (au)      (au)      (au)  
------------------------------------------------------------------------------------------
  0-1A  ->  1-1A    4.033786   32534.7   307.4   -3.03035  -0.38725   0.33734  -0.19835
  0-1A  ->  2-1A    7.049430   56857.5   175.9   -4.28528   0.17116   0.13349   0.07455
  0-1A  ->  3-1A    7.465747   60215.3   166.1   16.81358  -0.09122   0.07461   0.01619
  0-1A  ->  4-1A    7.894197   63671.0   157.1   -9.18311  -0.01975   0.09194  -0.12991
  0-1A  ->  5-1A    8.001892   64539.6   154.9    1.21160   0.03919   0.06058  -0.05032
  0-1A  ->  6-1A    8.034133   64799.7   154.3   25.67497  -0.10409  -0.10713   0.20538
  0-1A  ->  7-1A    8.442097   68090.1   146.9    0.41064  -0.06971  -0.15055   0.13855
  0-1A  ->  8-1A    8.565535   69085.7   144.7  -15.08079   0.16837  -0.05632   0.29535
  0-1A  ->  9-1A    8.688790   70079.8   142.7  -26.26506  -0.21043  -0.12956  -0.06949
  0-1A  -> 10-1A    9.078272   73221.2   136.6  -29.69045   0.20416   0.42955   0.05667
  0-1A  -> 11-1A    9.274674   74805.3   133.7   -2.43803  -0.07464  -0.09147  -0.05505
  0-1A  -> 12-1A    9.465203   76342.0   131.0   60.48911  -0.16379   0.12489  -0.21008
  0-1A  -> 13-1A    9.496864   76597.4   130.6    1.05305  -0.13848  -0.02696   0.19154
  0-1A  -> 14-1A    9.870954   79614.6   125.6    5.71450   0.14056  -0.00848   0.14413
  0-1A  -> 15-1A    9.959537   80329.1   124.5   -6.36156  -0.02760   0.16624   0.15739
  0-1A  -> 16-1A   10.039217   80971.8   123.5   -9.85728   0.31785   0.11511  -0.17314
  0-1A  -> 17-1A   10.240641   82596.3   121.1  -17.46601  -0.05391  -0.05640  -0.10219
  0-1A  -> 18-1A   10.359187   83552.5   119.7   12.34309  -0.18929  -0.13922  -0.00607
  0-1A  -> 19-1A   10.450608   84289.8   118.6   -3.07852   0.17958  -0.01851   0.03338
  0-1A  -> 20-1A   10.534089   84963.2   117.7   29.77656   0.13401   0.27095  -0.16492
  0-1A  -> 21-1A   10.577527   85313.5   117.2   14.00642   0.09106  -0.03526  -0.15239
  0-1A  -> 22-1A   10.615303   85618.2   116.8  -18.19791  -0.08931   0.09053  -0.34528
  0-1A  -> 23-1A   10.620202   85657.7   116.7   -1.73144   0.25577  -0.00449   0.26498
  0-1A  -> 24-1A   10.774911   86905.5   115.1   12.12203  -0.27728   0.06298   0.10341
  0-1A  -> 25-1A   10.801036   87116.2   114.8  -42.96753   0.09793  -0.22479  -0.17089

------------------------------------------------------------------------------------------
                     CD SPECTRUM VIA TRANSITION VELOCITY DIPOLE MOMENTS    
------------------------------------------------------------------------------------------
     Transition      Energy     Energy  Wavelength    R        MX        MY        MZ   
                      (eV)      (cm-1)    (nm)   (1e40*cgs)   (au)      (au)      (au)  
------------------------------------------------------------------------------------------
  0-1A  ->  1-1A    4.033786   32534.7   307.4    1.10960  -0.38725   0.33734  -0.19835
  0-1A  ->  2-1A    7.049430   56857.5   175.9   -4.02664   0.17116   0.13349   0.07455
  0-1A  ->  3-1A    7.465747   60215.3   166.1   16.34044  -0.09122   0.07461   0.01619
  0-1A  ->  4-1A    7.894197   63671.0   157.1   -9.11685  -0.01975   0.09194  -0.12991
  0-1A  ->  5-1A    8.001892   64539.6   154.9    1.16546   0.03919   0.06058  -0.05032
  0-1A  ->  6-1A    8.034133   64799.7   154.3   21.55144  -0.10409  -0.10713   0.20538
  0-1A  ->  7-1A    8.442097   68090.1   146.9    0.06036  -0.06971  -0.15055   0.13855
  0-1A  ->  8-1A    8.565535   69085.7   144.7  -14.60183   0.16837  -0.05632   0.29535
  0-1A  ->  9-1A    8.688790   70079.8   142.7  -23.05397  -0.21043  -0.12956  -0.06949
  0-1A  -> 10-1A    9.078272   73221.2   136.6  -27.89889   0.20416   0.42955   0.05667
  0-1A  -> 11-1A    9.274674   74805.3   133.7   -2.03199  -0.07464  -0.09147  -0.05505
  0-1A  -> 12-1A    9.465203   76342.0   131.0   56.69809  -0.16379   0.12489  -0.21008
  0-1A  -> 13-1A    9.496864   76597.4   130.6   -1.61141  -0.13848  -0.02696   0.19154
  0-1A  -> 14-1A    9.870954   79614.6   125.6    5.86408   0.14056  -0.00848   0.14413
  0-1A  -> 15-1A    9.959537   80329.1   124.5   -7.12678  -0.02760   0.16624   0.15739
  0-1A  -> 16-1A   10.039217   80971.8   123.5  -10.86430   0.31785   0.11511  -0.17314
  0-1A  -> 17-1A   10.240641   82596.3   121.1  -17.92825  -0.05391  -0.05640  -0.10219
  0-1A  -> 18-1A   10.359187   83552.5   119.7   12.13829  -0.18929  -0.13922  -0.00607
  0-1A  -> 19-1A   10.450608   84289.8   118.6   -2.97427   0.17958  -0.01851   0.03338
  0-1A  -> 20-1A   10.534089   84963.2   117.7   27.78732   0.13401   0.27095  -0.16492
  0-1A  -> 21-1A   10.577527   85313.5   117.2   14.67130   0.09106  -0.03526  -0.15239
  0-1A  -> 22-1A   10.615303   85618.2   116.8  -16.77153  -0.08931   0.09053  -0.34528
  0-1A  -> 23-1A   10.620202   85657.7   116.7    1.12468   0.25577  -0.00449   0.26498
  0-1A  -> 24-1A   10.774911   86905.5   115.1   13.73100  -0.27728   0.06298   0.10341
  0-1A  -> 25-1A   10.801036   87116.2   114.8  -36.59740   0.09793  -0.22479  -0.17089

Total run time:        4.776 sec

           *** ORCA-CIS/TD-DFT FINISHED WITHOUT ERROR ***
-----------------------
CIS/TD-DFT TOTAL ENERGY
-----------------------

    E(SCF)  =   -408.672517497 Eh
    DE(CIS) =      0.148238926 Eh (Root  1)
    ----------------------------- ---------
    E(tot)  =   -408.524278571 Eh


Maximum memory used throughout the entire CIS-calculation: 161.0 MB
=> NOW LEAVING ORCA_CIS

-------------------------   --------------------
FINAL SINGLE POINT ENERGY      -408.524278570911
-------------------------   --------------------



           ************************************************************
           *        Program running with 8 parallel MPI-processes     *
           *              working on a common directory               *
           ************************************************************

------------------------------------------------------------------------------
                              ORCA PROPERTY CALCULATIONS
------------------------------------------------------------------------------

GBWName                                 ... 2fluorocyclohexanone_1.gbw
Number of atoms                         ...     17
Number of basis functions               ...    157
Max core memory                         ...   1024 MB

Electric properties:
Dipole moment                           ... YES
Quadrupole moment                       ...  NO
Static polarizability (Dipole/Dipole)   ...  NO
Static polarizability (Dipole/Quad.)    ...  NO
Static polarizability (Quad./Quad.)     ...  NO
Static polarizability (Velocity)        ...  NO

Atomic electric properties:
Dipole moment                           ...  NO
Quadrupole moment                       ...  NO
Static polarizability                   ...  NO

Choice of electric origin               ... Center of mass
Position of electric origin             ...    -0.198463     0.020950    -0.015698

General magnetic properties:
Magnetizability                         ...  NO

EPR properties:
g-Tensor (aka g-matrix)                 ...  NO
Zero-Field splitting spin-orbit         ...  NO
Zero-field splitting spin-spin          ...  NO
Hyperfine couplings                     ...  NO (   0 nuclei)
Quadrupole couplings                    ...  NO (   0 nuclei)
Contact density                         ...  NO (   0 nuclei)

NMR properties:
Chemical shifts                         ...  NO (   0 nuclei)
Spin-rotation constants                 ...  NO (   0 nuclei)
Spin-spin couplings                     ...  NO (   0 nuclei,    0 pairs)

Choice of magnetic origin               ... GIAO
Position of magnetic origin             ...     0.000000     0.000000     0.000000

Properties with geometric perturbations:
SCF Hessian                             ...  NO
IR spectrum                             ...  NO
VCD spectrum                            ...  NO
X-ray spectroscopy properties:
SCF XES/XAS/RIXS spectra                ...  NO


-------------
DIPOLE MOMENT
-------------

Method             : SCF
Type of density    : Electron Density
Multiplicity       :   1
Irrep              :   0
Energy             :  -408.6725174969483874 Eh
Relativity type    : 
Basis              : AO
                                X                 Y                 Z
Electronic contribution:    -10.787978229       0.750835080      -0.504872884
Nuclear contribution   :     12.304160618      -1.298726466       0.973472024
                        -----------------------------------------
Total Dipole Moment    :      1.516182390      -0.547891386       0.468599139
                        -----------------------------------------
Magnitude (a.u.)       :      1.678862461
Magnitude (Debye)      :      4.267329246



--------------------
Rotational spectrum 
--------------------
 
Rotational constants in cm-1:             0.095228             0.068118             0.043030 
Rotational constants in MHz :          2854.865408          2042.132773          1289.992801 

Dipole components along the rotational axes: 
x,y,z [a.u.] :    -1.510458    -0.574986     0.454409 
x,y,z [Debye]:    -3.839279    -1.461498     1.155015 

 

Dipole moment calculation done in   0.0 sec 

Maximum memory used throughout the entire PROP-calculation: 7.7 MB

--------------------------------
SUGGESTED CITATIONS FOR THIS RUN
--------------------------------

Below you find a list of papers that are relevant to this ORCA run
We neither can nor want to force you to cite these papers, but we appreciate if you do
You receive ORCA, which is the product of decades of hard work by many enthusiastic individuals, for free
The only thing we kindly ask in return is that you cite our papers,
We deeply appreciate it, if you show your appreciation for ORCA by not just citing the generic ORCA reference.

Please note that relegating all ORCA citations to the supporting information does *not* help us.
SI sections are not indexed - citations you put there will not count into any citation statistics
But we need these citations in order to attract the funding resources that allow us to do what we are doing

Therefore, if you are a happy ORCA user, please consider citing a few of the papers listed below in the main body of your paper

In addition to the list printed below, the program has created the file 2fluorocyclohexanone_1.bibtex that contains the list in bibtex format
You can import this file easily into all common literature databanks and citation aid programs


List of essential papers. We consider these as the minimum necessary citations

  1. Neese,F.
     Software update: the ORCA program system, version 5.0
     WIRES Comput. Molec. Sci., 2022 12(1)e1606
     doi.org/10.1002/wcms.1606

List of papers to cite with high priority. The work reported in these papers was absolutely
necessary for this run to complete.
Our perspective: the developers of density functionals and basis sets usually get cited in chemistry papers
Good! But without the algorithms to do something with them, the functionals or basis sets would not do anything.
Hence, in our opinion, the algorithm design and method developments papers are equally worthy of getting cited

  1. Neese,F.; Olbrich,G.
     Efficient use of the resolution of the identity approximation in time-dependent density functional calculations with hybrid density functionals
     Chem. Phys. Lett., 2002 362 170-178
     doi.org/10.1016/s0009-2614(02)01053-9
  2. Neese,F.
     An improvement of the resolution of the identity approximation for the formation of the Coulomb matrix
     J. Comp. Chem., 2003 24(14)1740-1747
     doi.org/10.1002/jcc.10318
  3. Neese,F.; Wennmohs,F.; Hansen,A.; Becker,U.
     Efficient, approximate and parallel Hartree-Fock and hybrid DFT calculations. A 'chain-of-spheres' algorithm for the Hartree-Fock exchange
     Chem. Phys., 2009 356(1-3)98-109
     doi.org/10.1016/j.chemphys.2008.10.036
  4. Helmich-Paris,B.; de Souza,B.; Neese,F.; Izsák,R.
     An improved chain of spheres for exchange algorithm
     J. Chem. Phys., 2021 155 104109
     doi.org/doi: 10.1063/5.0058766.
  5. Neese,F.
     The SHARK Integral Generation and Digestion System
     J. Comp. Chem., 2022  1-16
     doi.org/10.1002/jcc.26942

List of suggested additional citations. These are papers that are important in the 'surrounding' of 
of this run, or papers that preceded the highly important papers. If you like your results we are grateful for a citation.

  1. Izsak,R.; Neese,F.
     An overlap fitted chain of spheres exchange method
     J. Chem. Phys., 2011 135 144105
     doi.org/10.1063/1.3646921
  2. Izsak,R.; Hansen,A.; Neese,F.
     The resolution of identity and chain of spheres approximations for the LPNO-CCSD singles Fock term
     Molec. Phys., 2012 110 2413-2417
     doi.org/10.1080/00268976.2012.687466
  3. Neese,F.
     The ORCA program system
     WIRES Comput. Molec. Sci., 2012 2(1)73-78
     doi.org/10.1002/wcms.81
  4. Izsak,R.; Neese,F.; Klopper,W.
     Robust fitting techniques in the chain of spheres approximation to the Fock exchange: The role of the complementary space
     J. Chem. Phys., 2013 139 
     doi.org/10.1063/1.4819264
  5. Neese,F.
     Software update: the ORCA program system, version 4.0
     WIRES Comput. Molec. Sci., 2018 8(1)1-6
     doi.org/10.1002/wcms.1327
  6. Neese,F.; Wennmohs,F.; Becker,U.; Riplinger,C.
     The ORCA quantum chemistry program package
     J. Chem. Phys., 2020 152 Art. No. L224108
     doi.org/10.1063/5.0004608

List of optional additional citations

  1. Neese,F.
     Approximate second-order SCF convergence for spin unrestricted wavefunctions
     Chem. Phys. Lett., 2000 325(1-3)93-98
     doi.org/10.1016/s0009-2614(00)00662-x

Timings for individual modules:

Sum of individual times          ...        7.894 sec (=   0.132 min)
Startup calculation              ...        0.569 sec (=   0.009 min)   7.2 %
SCF iterations                   ...        2.086 sec (=   0.035 min)  26.4 %
Property integrals               ...        0.172 sec (=   0.003 min)   2.2 %
Property calculations            ...        0.169 sec (=   0.003 min)   2.1 %
CIS module                       ...        4.898 sec (=   0.082 min)  62.1 %
                             ****ORCA TERMINATED NORMALLY****
TOTAL RUN TIME: 0 days 0 hours 0 minutes 8 seconds 74 msec
